# LAMMPS data file written by OVITO Basic 3.4.4
941 atoms
1 atom types
-31.6421932 31.6421932 xlo xhi
-31.6421932 31.6421932 ylo yhi
-31.6421932 31.6421932 zlo zhi

Atoms  # atomic

1 1 -14.56191905 -6.24082245 0.0
2 1 -16.6421932 -2.08027415 -2.08027415
3 1 -14.56191905 -4.1605483 -2.08027415
4 1 -14.56191905 -2.08027415 -4.1605483
5 1 -16.6421932 -4.1605483 0.0
6 1 -16.6421932 -2.08027415 2.08027415
7 1 -14.56191905 -4.1605483 2.08027415
8 1 -14.56191905 -2.08027415 0.0
9 1 -14.56191905 -2.08027415 4.1605483
10 1 -14.56191905 0.0 -6.24082245
11 1 -16.6421932 0.0 -4.1605483
12 1 -16.6421932 2.08027415 -2.08027415
13 1 -14.56191905 0.0 -2.08027415
14 1 -14.56191905 2.08027415 -4.1605483
15 1 -16.6421932 0.0 0.0
16 1 -16.6421932 2.08027415 2.08027415
17 1 -14.56191905 0.0 2.08027415
18 1 -14.56191905 2.08027415 0.0
19 1 -16.6421932 0.0 4.1605483
20 1 -14.56191905 0.0 6.24082245
21 1 -14.56191905 2.08027415 4.1605483
22 1 -14.56191905 4.1605483 -2.08027415
23 1 -16.6421932 4.1605483 0.0
24 1 -14.56191905 4.1605483 2.08027415
25 1 -14.56191905 6.24082245 0.0
26 1 -10.40137075 -10.40137075 0.0
27 1 -12.4816449 -6.24082245 -6.24082245
28 1 -10.40137075 -8.3210966 -6.24082245
29 1 -10.40137075 -6.24082245 -8.3210966
30 1 -12.4816449 -6.24082245 -2.08027415
31 1 -10.40137075 -8.3210966 -2.08027415
32 1 -10.40137075 -6.24082245 -4.1605483
33 1 -12.4816449 -8.3210966 0.0
34 1 -12.4816449 -6.24082245 2.08027415
35 1 -10.40137075 -8.3210966 2.08027415
36 1 -10.40137075 -6.24082245 0.0
37 1 -12.4816449 -6.24082245 6.24082245
38 1 -10.40137075 -8.3210966 6.24082245
39 1 -10.40137075 -6.24082245 4.1605483
40 1 -10.40137075 -6.24082245 8.3210966
41 1 -12.4816449 -2.08027415 -6.24082245
42 1 -10.40137075 -4.1605483 -6.24082245
43 1 -10.40137075 -2.08027415 -8.3210966
44 1 -12.4816449 -4.1605483 -4.1605483
45 1 -12.4816449 -2.08027415 -2.08027415
46 1 -10.40137075 -4.1605483 -2.08027415
47 1 -10.40137075 -2.08027415 -4.1605483
48 1 -12.4816449 -4.1605483 0.0
49 1 -12.4816449 -2.08027415 2.08027415
50 1 -10.40137075 -4.1605483 2.08027415
51 1 -10.40137075 -2.08027415 0.0
52 1 -12.4816449 -4.1605483 4.1605483
53 1 -12.4816449 -2.08027415 6.24082245
54 1 -10.40137075 -4.1605483 6.24082245
55 1 -10.40137075 -2.08027415 4.1605483
56 1 -10.40137075 -2.08027415 8.3210966
57 1 -10.40137075 0.0 -10.40137075
58 1 -12.4816449 0.0 -8.3210966
59 1 -12.4816449 2.08027415 -6.24082245
60 1 -10.40137075 0.0 -6.24082245
61 1 -10.40137075 2.08027415 -8.3210966
62 1 -12.4816449 0.0 -4.1605483
63 1 -12.4816449 2.08027415 -2.08027415
64 1 -10.40137075 0.0 -2.08027415
65 1 -10.40137075 2.08027415 -4.1605483
66 1 -12.4816449 0.0 0.0
67 1 -12.4816449 2.08027415 2.08027415
68 1 -10.40137075 0.0 2.08027415
69 1 -10.40137075 2.08027415 0.0
70 1 -12.4816449 0.0 4.1605483
71 1 -12.4816449 2.08027415 6.24082245
72 1 -10.40137075 0.0 6.24082245
73 1 -10.40137075 2.08027415 4.1605483
74 1 -12.4816449 0.0 8.3210966
75 1 -10.40137075 0.0 10.40137075
76 1 -10.40137075 2.08027415 8.3210966
77 1 -12.4816449 6.24082245 -6.24082245
78 1 -10.40137075 4.1605483 -6.24082245
79 1 -10.40137075 6.24082245 -8.3210966
80 1 -12.4816449 4.1605483 -4.1605483
81 1 -12.4816449 6.24082245 -2.08027415
82 1 -10.40137075 4.1605483 -2.08027415
83 1 -10.40137075 6.24082245 -4.1605483
84 1 -12.4816449 4.1605483 0.0
85 1 -12.4816449 6.24082245 2.08027415
86 1 -10.40137075 4.1605483 2.08027415
87 1 -10.40137075 6.24082245 0.0
88 1 -12.4816449 4.1605483 4.1605483
89 1 -12.4816449 6.24082245 6.24082245
90 1 -10.40137075 4.1605483 6.24082245
91 1 -10.40137075 6.24082245 4.1605483
92 1 -10.40137075 6.24082245 8.3210966
93 1 -10.40137075 8.3210966 -6.24082245
94 1 -10.40137075 8.3210966 -2.08027415
95 1 -12.4816449 8.3210966 0.0
96 1 -10.40137075 8.3210966 2.08027415
97 1 -10.40137075 10.40137075 0.0
98 1 -10.40137075 8.3210966 6.24082245
99 1 -6.24082245 -14.56191905 0.0
100 1 -8.3210966 -10.40137075 -6.24082245
101 1 -6.24082245 -12.4816449 -6.24082245
102 1 -6.24082245 -10.40137075 -8.3210966
103 1 -8.3210966 -10.40137075 -2.08027415
104 1 -6.24082245 -12.4816449 -2.08027415
105 1 -6.24082245 -10.40137075 -4.1605483
106 1 -8.3210966 -12.4816449 0.0
107 1 -8.3210966 -10.40137075 2.08027415
108 1 -6.24082245 -12.4816449 2.08027415
109 1 -6.24082245 -10.40137075 0.0
110 1 -8.3210966 -10.40137075 6.24082245
111 1 -6.24082245 -12.4816449 6.24082245
112 1 -6.24082245 -10.40137075 4.1605483
113 1 -6.24082245 -10.40137075 8.3210966
114 1 -8.3210966 -6.24082245 -10.40137075
115 1 -6.24082245 -8.3210966 -10.40137075
116 1 -6.24082245 -6.24082245 -12.4816449
117 1 -8.3210966 -8.3210966 -8.3210966
118 1 -8.3210966 -6.24082245 -6.24082245
119 1 -6.24082245 -8.3210966 -6.24082245
120 1 -6.24082245 -6.24082245 -8.3210966
121 1 -8.3210966 -8.3210966 -4.1605483
122 1 -8.3210966 -6.24082245 -2.08027415
123 1 -6.24082245 -8.3210966 -2.08027415
124 1 -6.24082245 -6.24082245 -4.1605483
125 1 -8.3210966 -8.3210966 0.0
126 1 -8.3210966 -6.24082245 2.08027415
127 1 -6.24082245 -8.3210966 2.08027415
128 1 -6.24082245 -6.24082245 0.0
129 1 -8.3210966 -8.3210966 4.1605483
130 1 -8.3210966 -6.24082245 6.24082245
131 1 -6.24082245 -8.3210966 6.24082245
132 1 -6.24082245 -6.24082245 4.1605483
133 1 -8.3210966 -8.3210966 8.3210966
134 1 -8.3210966 -6.24082245 10.40137075
135 1 -6.24082245 -8.3210966 10.40137075
136 1 -6.24082245 -6.24082245 8.3210966
137 1 -6.24082245 -6.24082245 12.4816449
138 1 -8.3210966 -2.08027415 -10.40137075
139 1 -6.24082245 -4.1605483 -10.40137075
140 1 -6.24082245 -2.08027415 -12.4816449
141 1 -8.3210966 -4.1605483 -8.3210966
142 1 -8.3210966 -2.08027415 -6.24082245
143 1 -6.24082245 -4.1605483 -6.24082245
144 1 -6.24082245 -2.08027415 -8.3210966
145 1 -8.3210966 -4.1605483 -4.1605483
146 1 -8.3210966 -2.08027415 -2.08027415
147 1 -6.24082245 -4.1605483 -2.08027415
148 1 -6.24082245 -2.08027415 -4.1605483
149 1 -8.3210966 -4.1605483 0.0
150 1 -8.3210966 -2.08027415 2.08027415
151 1 -6.24082245 -4.1605483 2.08027415
152 1 -6.24082245 -2.08027415 0.0
153 1 -8.3210966 -4.1605483 4.1605483
154 1 -8.3210966 -2.08027415 6.24082245
155 1 -6.24082245 -4.1605483 6.24082245
156 1 -6.24082245 -2.08027415 4.1605483
157 1 -8.3210966 -4.1605483 8.3210966
158 1 -8.3210966 -2.08027415 10.40137075
159 1 -6.24082245 -4.1605483 10.40137075
160 1 -6.24082245 -2.08027415 8.3210966
161 1 -6.24082245 -2.08027415 12.4816449
162 1 -6.24082245 0.0 -14.56191905
163 1 -8.3210966 0.0 -12.4816449
164 1 -8.3210966 2.08027415 -10.40137075
165 1 -6.24082245 0.0 -10.40137075
166 1 -6.24082245 2.08027415 -12.4816449
167 1 -8.3210966 0.0 -8.3210966
168 1 -8.3210966 2.08027415 -6.24082245
169 1 -6.24082245 0.0 -6.24082245
170 1 -6.24082245 2.08027415 -8.3210966
171 1 -8.3210966 0.0 -4.1605483
172 1 -8.3210966 2.08027415 -2.08027415
173 1 -6.24082245 0.0 -2.08027415
174 1 -6.24082245 2.08027415 -4.1605483
175 1 -8.3210966 0.0 0.0
176 1 -8.3210966 2.08027415 2.08027415
177 1 -6.24082245 0.0 2.08027415
178 1 -6.24082245 2.08027415 0.0
179 1 -8.3210966 0.0 4.1605483
180 1 -8.3210966 2.08027415 6.24082245
181 1 -6.24082245 0.0 6.24082245
182 1 -6.24082245 2.08027415 4.1605483
183 1 -8.3210966 0.0 8.3210966
184 1 -8.3210966 2.08027415 10.40137075
185 1 -6.24082245 0.0 10.40137075
186 1 -6.24082245 2.08027415 8.3210966
187 1 -8.3210966 0.0 12.4816449
188 1 -6.24082245 0.0 14.56191905
189 1 -6.24082245 2.08027415 12.4816449
190 1 -8.3210966 6.24082245 -10.40137075
191 1 -6.24082245 4.1605483 -10.40137075
192 1 -6.24082245 6.24082245 -12.4816449
193 1 -8.3210966 4.1605483 -8.3210966
194 1 -8.3210966 6.24082245 -6.24082245
195 1 -6.24082245 4.1605483 -6.24082245
196 1 -6.24082245 6.24082245 -8.3210966
197 1 -8.3210966 4.1605483 -4.1605483
198 1 -8.3210966 6.24082245 -2.08027415
199 1 -6.24082245 4.1605483 -2.08027415
200 1 -6.24082245 6.24082245 -4.1605483
201 1 -8.3210966 4.1605483 0.0
202 1 -8.3210966 6.24082245 2.08027415
203 1 -6.24082245 4.1605483 2.08027415
204 1 -6.24082245 6.24082245 0.0
205 1 -8.3210966 4.1605483 4.1605483
206 1 -8.3210966 6.24082245 6.24082245
207 1 -6.24082245 4.1605483 6.24082245
208 1 -6.24082245 6.24082245 4.1605483
209 1 -8.3210966 4.1605483 8.3210966
210 1 -8.3210966 6.24082245 10.40137075
211 1 -6.24082245 4.1605483 10.40137075
212 1 -6.24082245 6.24082245 8.3210966
213 1 -6.24082245 6.24082245 12.4816449
214 1 -6.24082245 8.3210966 -10.40137075
215 1 -8.3210966 8.3210966 -8.3210966
216 1 -8.3210966 10.40137075 -6.24082245
217 1 -6.24082245 8.3210966 -6.24082245
218 1 -6.24082245 10.40137075 -8.3210966
219 1 -8.3210966 8.3210966 -4.1605483
220 1 -8.3210966 10.40137075 -2.08027415
221 1 -6.24082245 8.3210966 -2.08027415
222 1 -6.24082245 10.40137075 -4.1605483
223 1 -8.3210966 8.3210966 0.0
224 1 -8.3210966 10.40137075 2.08027415
225 1 -6.24082245 8.3210966 2.08027415
226 1 -6.24082245 10.40137075 0.0
227 1 -8.3210966 8.3210966 4.1605483
228 1 -8.3210966 10.40137075 6.24082245
229 1 -6.24082245 8.3210966 6.24082245
230 1 -6.24082245 10.40137075 4.1605483
231 1 -8.3210966 8.3210966 8.3210966
232 1 -6.24082245 8.3210966 10.40137075
233 1 -6.24082245 10.40137075 8.3210966
234 1 -6.24082245 12.4816449 -6.24082245
235 1 -6.24082245 12.4816449 -2.08027415
236 1 -8.3210966 12.4816449 0.0
237 1 -6.24082245 12.4816449 2.08027415
238 1 -6.24082245 14.56191905 0.0
239 1 -6.24082245 12.4816449 6.24082245
240 1 -4.1605483 -14.56191905 -2.08027415
241 1 -2.08027415 -16.6421932 -2.08027415
242 1 -2.08027415 -14.56191905 -4.1605483
243 1 -4.1605483 -16.6421932 0.0
244 1 -4.1605483 -14.56191905 2.08027415
245 1 -2.08027415 -16.6421932 2.08027415
246 1 -2.08027415 -14.56191905 0.0
247 1 -2.08027415 -14.56191905 4.1605483
248 1 -4.1605483 -10.40137075 -6.24082245
249 1 -2.08027415 -12.4816449 -6.24082245
250 1 -2.08027415 -10.40137075 -8.3210966
251 1 -4.1605483 -12.4816449 -4.1605483
252 1 -4.1605483 -10.40137075 -2.08027415
253 1 -2.08027415 -12.4816449 -2.08027415
254 1 -2.08027415 -10.40137075 -4.1605483
255 1 -4.1605483 -12.4816449 0.0
256 1 -4.1605483 -10.40137075 2.08027415
257 1 -2.08027415 -12.4816449 2.08027415
258 1 -2.08027415 -10.40137075 0.0
259 1 -4.1605483 -12.4816449 4.1605483
260 1 -4.1605483 -10.40137075 6.24082245
261 1 -2.08027415 -12.4816449 6.24082245
262 1 -2.08027415 -10.40137075 4.1605483
263 1 -2.08027415 -10.40137075 8.3210966
264 1 -4.1605483 -6.24082245 -10.40137075
265 1 -2.08027415 -8.3210966 -10.40137075
266 1 -2.08027415 -6.24082245 -12.4816449
267 1 -4.1605483 -8.3210966 -8.3210966
268 1 -4.1605483 -6.24082245 -6.24082245
269 1 -2.08027415 -8.3210966 -6.24082245
270 1 -2.08027415 -6.24082245 -8.3210966
271 1 -4.1605483 -8.3210966 -4.1605483
272 1 -4.1605483 -6.24082245 -2.08027415
273 1 -2.08027415 -8.3210966 -2.08027415
274 1 -2.08027415 -6.24082245 -4.1605483
275 1 -4.1605483 -8.3210966 0.0
276 1 -4.1605483 -6.24082245 2.08027415
277 1 -2.08027415 -8.3210966 2.08027415
278 1 -2.08027415 -6.24082245 0.0
279 1 -4.1605483 -8.3210966 4.1605483
280 1 -4.1605483 -6.24082245 6.24082245
281 1 -2.08027415 -8.3210966 6.24082245
282 1 -2.08027415 -6.24082245 4.1605483
283 1 -4.1605483 -8.3210966 8.3210966
284 1 -4.1605483 -6.24082245 10.40137075
285 1 -2.08027415 -8.3210966 10.40137075
286 1 -2.08027415 -6.24082245 8.3210966
287 1 -2.08027415 -6.24082245 12.4816449
288 1 -4.1605483 -2.08027415 -14.56191905
289 1 -2.08027415 -4.1605483 -14.56191905
290 1 -2.08027415 -2.08027415 -16.6421932
291 1 -4.1605483 -4.1605483 -12.4816449
292 1 -4.1605483 -2.08027415 -10.40137075
293 1 -2.08027415 -4.1605483 -10.40137075
294 1 -2.08027415 -2.08027415 -12.4816449
295 1 -4.1605483 -4.1605483 -8.3210966
296 1 -4.1605483 -2.08027415 -6.24082245
297 1 -2.08027415 -4.1605483 -6.24082245
298 1 -2.08027415 -2.08027415 -8.3210966
299 1 -4.1605483 -4.1605483 -4.1605483
300 1 -4.1605483 -2.08027415 -2.08027415
301 1 -2.08027415 -4.1605483 -2.08027415
302 1 -2.08027415 -2.08027415 -4.1605483
303 1 -4.1605483 -4.1605483 0.0
304 1 -4.1605483 -2.08027415 2.08027415
305 1 -2.08027415 -4.1605483 2.08027415
306 1 -2.08027415 -2.08027415 0.0
307 1 -4.1605483 -4.1605483 4.1605483
308 1 -4.1605483 -2.08027415 6.24082245
309 1 -2.08027415 -4.1605483 6.24082245
310 1 -2.08027415 -2.08027415 4.1605483
311 1 -4.1605483 -4.1605483 8.3210966
312 1 -4.1605483 -2.08027415 10.40137075
313 1 -2.08027415 -4.1605483 10.40137075
314 1 -2.08027415 -2.08027415 8.3210966
315 1 -4.1605483 -4.1605483 12.4816449
316 1 -4.1605483 -2.08027415 14.56191905
317 1 -2.08027415 -4.1605483 14.56191905
318 1 -2.08027415 -2.08027415 12.4816449
319 1 -2.08027415 -2.08027415 16.6421932
320 1 -4.1605483 0.0 -16.6421932
321 1 -4.1605483 2.08027415 -14.56191905
322 1 -2.08027415 0.0 -14.56191905
323 1 -2.08027415 2.08027415 -16.6421932
324 1 -4.1605483 0.0 -12.4816449
325 1 -4.1605483 2.08027415 -10.40137075
326 1 -2.08027415 0.0 -10.40137075
327 1 -2.08027415 2.08027415 -12.4816449
328 1 -4.1605483 0.0 -8.3210966
329 1 -4.1605483 2.08027415 -6.24082245
330 1 -2.08027415 0.0 -6.24082245
331 1 -2.08027415 2.08027415 -8.3210966
332 1 -4.1605483 0.0 -4.1605483
333 1 -4.1605483 2.08027415 -2.08027415
334 1 -2.08027415 0.0 -2.08027415
335 1 -2.08027415 2.08027415 -4.1605483
336 1 -4.1605483 0.0 0.0
337 1 -4.1605483 2.08027415 2.08027415
338 1 -2.08027415 0.0 2.08027415
339 1 -2.08027415 2.08027415 0.0
340 1 -4.1605483 0.0 4.1605483
341 1 -4.1605483 2.08027415 6.24082245
342 1 -2.08027415 0.0 6.24082245
343 1 -2.08027415 2.08027415 4.1605483
344 1 -4.1605483 0.0 8.3210966
345 1 -4.1605483 2.08027415 10.40137075
346 1 -2.08027415 0.0 10.40137075
347 1 -2.08027415 2.08027415 8.3210966
348 1 -4.1605483 0.0 12.4816449
349 1 -4.1605483 2.08027415 14.56191905
350 1 -2.08027415 0.0 14.56191905
351 1 -2.08027415 2.08027415 12.4816449
352 1 -4.1605483 0.0 16.6421932
353 1 -2.08027415 2.08027415 16.6421932
354 1 -2.08027415 4.1605483 -14.56191905
355 1 -4.1605483 4.1605483 -12.4816449
356 1 -4.1605483 6.24082245 -10.40137075
357 1 -2.08027415 4.1605483 -10.40137075
358 1 -2.08027415 6.24082245 -12.4816449
359 1 -4.1605483 4.1605483 -8.3210966
360 1 -4.1605483 6.24082245 -6.24082245
361 1 -2.08027415 4.1605483 -6.24082245
362 1 -2.08027415 6.24082245 -8.3210966
363 1 -4.1605483 4.1605483 -4.1605483
364 1 -4.1605483 6.24082245 -2.08027415
365 1 -2.08027415 4.1605483 -2.08027415
366 1 -2.08027415 6.24082245 -4.1605483
367 1 -4.1605483 4.1605483 0.0
368 1 -4.1605483 6.24082245 2.08027415
369 1 -2.08027415 4.1605483 2.08027415
370 1 -2.08027415 6.24082245 0.0
371 1 -4.1605483 4.1605483 4.1605483
372 1 -4.1605483 6.24082245 6.24082245
373 1 -2.08027415 4.1605483 6.24082245
374 1 -2.08027415 6.24082245 4.1605483
375 1 -4.1605483 4.1605483 8.3210966
376 1 -4.1605483 6.24082245 10.40137075
377 1 -2.08027415 4.1605483 10.40137075
378 1 -2.08027415 6.24082245 8.3210966
379 1 -4.1605483 4.1605483 12.4816449
380 1 -2.08027415 4.1605483 14.56191905
381 1 -2.08027415 6.24082245 12.4816449
382 1 -2.08027415 8.3210966 -10.40137075
383 1 -4.1605483 8.3210966 -8.3210966
384 1 -4.1605483 10.40137075 -6.24082245
385 1 -2.08027415 8.3210966 -6.24082245
386 1 -2.08027415 10.40137075 -8.3210966
387 1 -4.1605483 8.3210966 -4.1605483
388 1 -4.1605483 10.40137075 -2.08027415
389 1 -2.08027415 8.3210966 -2.08027415
390 1 -2.08027415 10.40137075 -4.1605483
391 1 -4.1605483 8.3210966 0.0
392 1 -4.1605483 10.40137075 2.08027415
393 1 -2.08027415 8.3210966 2.08027415
394 1 -2.08027415 10.40137075 0.0
395 1 -4.1605483 8.3210966 4.1605483
396 1 -4.1605483 10.40137075 6.24082245
397 1 -2.08027415 8.3210966 6.24082245
398 1 -2.08027415 10.40137075 4.1605483
399 1 -4.1605483 8.3210966 8.3210966
400 1 -2.08027415 8.3210966 10.40137075
401 1 -2.08027415 10.40137075 8.3210966
402 1 -2.08027415 12.4816449 -6.24082245
403 1 -4.1605483 12.4816449 -4.1605483
404 1 -4.1605483 14.56191905 -2.08027415
405 1 -2.08027415 12.4816449 -2.08027415
406 1 -2.08027415 14.56191905 -4.1605483
407 1 -4.1605483 12.4816449 0.0
408 1 -4.1605483 14.56191905 2.08027415
409 1 -2.08027415 12.4816449 2.08027415
410 1 -2.08027415 14.56191905 0.0
411 1 -4.1605483 12.4816449 4.1605483
412 1 -2.08027415 12.4816449 6.24082245
413 1 -2.08027415 14.56191905 4.1605483
414 1 -2.08027415 16.6421932 -2.08027415
415 1 -4.1605483 16.6421932 0.0
416 1 -2.08027415 16.6421932 2.08027415
417 1 0.0 -14.56191905 -6.24082245
418 1 0.0 -16.6421932 -4.1605483
419 1 0.0 -14.56191905 -2.08027415
420 1 2.08027415 -16.6421932 -2.08027415
421 1 2.08027415 -14.56191905 -4.1605483
422 1 0.0 -16.6421932 0.0
423 1 0.0 -14.56191905 2.08027415
424 1 2.08027415 -16.6421932 2.08027415
425 1 2.08027415 -14.56191905 0.0
426 1 0.0 -16.6421932 4.1605483
427 1 0.0 -14.56191905 6.24082245
428 1 2.08027415 -14.56191905 4.1605483
429 1 0.0 -10.40137075 -10.40137075
430 1 0.0 -12.4816449 -8.3210966
431 1 0.0 -10.40137075 -6.24082245
432 1 2.08027415 -12.4816449 -6.24082245
433 1 2.08027415 -10.40137075 -8.3210966
434 1 0.0 -12.4816449 -4.1605483
435 1 0.0 -10.40137075 -2.08027415
436 1 2.08027415 -12.4816449 -2.08027415
437 1 2.08027415 -10.40137075 -4.1605483
438 1 0.0 -12.4816449 0.0
439 1 0.0 -10.40137075 2.08027415
440 1 2.08027415 -12.4816449 2.08027415
441 1 2.08027415 -10.40137075 0.0
442 1 0.0 -12.4816449 4.1605483
443 1 0.0 -10.40137075 6.24082245
444 1 2.08027415 -12.4816449 6.24082245
445 1 2.08027415 -10.40137075 4.1605483
446 1 0.0 -12.4816449 8.3210966
447 1 0.0 -10.40137075 10.40137075
448 1 2.08027415 -10.40137075 8.3210966
449 1 0.0 -6.24082245 -14.56191905
450 1 0.0 -8.3210966 -12.4816449
451 1 0.0 -6.24082245 -10.40137075
452 1 2.08027415 -8.3210966 -10.40137075
453 1 2.08027415 -6.24082245 -12.4816449
454 1 0.0 -8.3210966 -8.3210966
455 1 0.0 -6.24082245 -6.24082245
456 1 2.08027415 -8.3210966 -6.24082245
457 1 2.08027415 -6.24082245 -8.3210966
458 1 0.0 -8.3210966 -4.1605483
459 1 0.0 -6.24082245 -2.08027415
460 1 2.08027415 -8.3210966 -2.08027415
461 1 2.08027415 -6.24082245 -4.1605483
462 1 0.0 -8.3210966 0.0
463 1 0.0 -6.24082245 2.08027415
464 1 2.08027415 -8.3210966 2.08027415
465 1 2.08027415 -6.24082245 0.0
466 1 0.0 -8.3210966 4.1605483
467 1 0.0 -6.24082245 6.24082245
468 1 2.08027415 -8.3210966 6.24082245
469 1 2.08027415 -6.24082245 4.1605483
470 1 0.0 -8.3210966 8.3210966
471 1 0.0 -6.24082245 10.40137075
472 1 2.08027415 -8.3210966 10.40137075
473 1 2.08027415 -6.24082245 8.3210966
474 1 0.0 -8.3210966 12.4816449
475 1 0.0 -6.24082245 14.56191905
476 1 2.08027415 -6.24082245 12.4816449
477 1 0.0 -4.1605483 -16.6421932
478 1 0.0 -2.08027415 -14.56191905
479 1 2.08027415 -4.1605483 -14.56191905
480 1 2.08027415 -2.08027415 -16.6421932
481 1 0.0 -4.1605483 -12.4816449
482 1 0.0 -2.08027415 -10.40137075
483 1 2.08027415 -4.1605483 -10.40137075
484 1 2.08027415 -2.08027415 -12.4816449
485 1 0.0 -4.1605483 -8.3210966
486 1 0.0 -2.08027415 -6.24082245
487 1 2.08027415 -4.1605483 -6.24082245
488 1 2.08027415 -2.08027415 -8.3210966
489 1 0.0 -4.1605483 -4.1605483
490 1 0.0 -2.08027415 -2.08027415
491 1 2.08027415 -4.1605483 -2.08027415
492 1 2.08027415 -2.08027415 -4.1605483
493 1 0.0 -4.1605483 0.0
494 1 0.0 -2.08027415 2.08027415
495 1 2.08027415 -4.1605483 2.08027415
496 1 2.08027415 -2.08027415 0.0
497 1 0.0 -4.1605483 4.1605483
498 1 0.0 -2.08027415 6.24082245
499 1 2.08027415 -4.1605483 6.24082245
500 1 2.08027415 -2.08027415 4.1605483
501 1 0.0 -4.1605483 8.3210966
502 1 0.0 -2.08027415 10.40137075
503 1 2.08027415 -4.1605483 10.40137075
504 1 2.08027415 -2.08027415 8.3210966
505 1 0.0 -4.1605483 12.4816449
506 1 0.0 -2.08027415 14.56191905
507 1 2.08027415 -4.1605483 14.56191905
508 1 2.08027415 -2.08027415 12.4816449
509 1 0.0 -4.1605483 16.6421932
510 1 2.08027415 -2.08027415 16.6421932
511 1 0.0 0.0 -16.6421932
512 1 0.0 2.08027415 -14.56191905
513 1 2.08027415 0.0 -14.56191905
514 1 2.08027415 2.08027415 -16.6421932
515 1 0.0 0.0 -12.4816449
516 1 0.0 2.08027415 -10.40137075
517 1 2.08027415 0.0 -10.40137075
518 1 2.08027415 2.08027415 -12.4816449
519 1 0.0 0.0 -8.3210966
520 1 0.0 2.08027415 -6.24082245
521 1 2.08027415 0.0 -6.24082245
522 1 2.08027415 2.08027415 -8.3210966
523 1 0.0 0.0 -4.1605483
524 1 0.0 2.08027415 -2.08027415
525 1 2.08027415 0.0 -2.08027415
526 1 2.08027415 2.08027415 -4.1605483
527 1 0.0 0.0 0.0
528 1 0.0 2.08027415 2.08027415
529 1 2.08027415 0.0 2.08027415
530 1 2.08027415 2.08027415 0.0
531 1 0.0 0.0 4.1605483
532 1 0.0 2.08027415 6.24082245
533 1 2.08027415 0.0 6.24082245
534 1 2.08027415 2.08027415 4.1605483
535 1 0.0 0.0 8.3210966
536 1 0.0 2.08027415 10.40137075
537 1 2.08027415 0.0 10.40137075
538 1 2.08027415 2.08027415 8.3210966
539 1 0.0 0.0 12.4816449
540 1 0.0 2.08027415 14.56191905
541 1 2.08027415 0.0 14.56191905
542 1 2.08027415 2.08027415 12.4816449
543 1 0.0 0.0 16.6421932
544 1 2.08027415 2.08027415 16.6421932
545 1 0.0 4.1605483 -16.6421932
546 1 0.0 6.24082245 -14.56191905
547 1 2.08027415 4.1605483 -14.56191905
548 1 0.0 4.1605483 -12.4816449
549 1 0.0 6.24082245 -10.40137075
550 1 2.08027415 4.1605483 -10.40137075
551 1 2.08027415 6.24082245 -12.4816449
552 1 0.0 4.1605483 -8.3210966
553 1 0.0 6.24082245 -6.24082245
554 1 2.08027415 4.1605483 -6.24082245
555 1 2.08027415 6.24082245 -8.3210966
556 1 0.0 4.1605483 -4.1605483
557 1 0.0 6.24082245 -2.08027415
558 1 2.08027415 4.1605483 -2.08027415
559 1 2.08027415 6.24082245 -4.1605483
560 1 0.0 4.1605483 0.0
561 1 0.0 6.24082245 2.08027415
562 1 2.08027415 4.1605483 2.08027415
563 1 2.08027415 6.24082245 0.0
564 1 0.0 4.1605483 4.1605483
565 1 0.0 6.24082245 6.24082245
566 1 2.08027415 4.1605483 6.24082245
567 1 2.08027415 6.24082245 4.1605483
568 1 0.0 4.1605483 8.3210966
569 1 0.0 6.24082245 10.40137075
570 1 2.08027415 4.1605483 10.40137075
571 1 2.08027415 6.24082245 8.3210966
572 1 0.0 4.1605483 12.4816449
573 1 0.0 6.24082245 14.56191905
574 1 2.08027415 4.1605483 14.56191905
575 1 2.08027415 6.24082245 12.4816449
576 1 0.0 4.1605483 16.6421932
577 1 0.0 8.3210966 -12.4816449
578 1 0.0 10.40137075 -10.40137075
579 1 2.08027415 8.3210966 -10.40137075
580 1 0.0 8.3210966 -8.3210966
581 1 0.0 10.40137075 -6.24082245
582 1 2.08027415 8.3210966 -6.24082245
583 1 2.08027415 10.40137075 -8.3210966
584 1 0.0 8.3210966 -4.1605483
585 1 0.0 10.40137075 -2.08027415
586 1 2.08027415 8.3210966 -2.08027415
587 1 2.08027415 10.40137075 -4.1605483
588 1 0.0 8.3210966 0.0
589 1 0.0 10.40137075 2.08027415
590 1 2.08027415 8.3210966 2.08027415
591 1 2.08027415 10.40137075 0.0
592 1 0.0 8.3210966 4.1605483
593 1 0.0 10.40137075 6.24082245
594 1 2.08027415 8.3210966 6.24082245
595 1 2.08027415 10.40137075 4.1605483
596 1 0.0 8.3210966 8.3210966
597 1 0.0 10.40137075 10.40137075
598 1 2.08027415 8.3210966 10.40137075
599 1 2.08027415 10.40137075 8.3210966
600 1 0.0 8.3210966 12.4816449
601 1 0.0 12.4816449 -8.3210966
602 1 0.0 14.56191905 -6.24082245
603 1 2.08027415 12.4816449 -6.24082245
604 1 0.0 12.4816449 -4.1605483
605 1 0.0 14.56191905 -2.08027415
606 1 2.08027415 12.4816449 -2.08027415
607 1 2.08027415 14.56191905 -4.1605483
608 1 0.0 12.4816449 0.0
609 1 0.0 14.56191905 2.08027415
610 1 2.08027415 12.4816449 2.08027415
611 1 2.08027415 14.56191905 0.0
612 1 0.0 12.4816449 4.1605483
613 1 0.0 14.56191905 6.24082245
614 1 2.08027415 12.4816449 6.24082245
615 1 2.08027415 14.56191905 4.1605483
616 1 0.0 12.4816449 8.3210966
617 1 0.0 16.6421932 -4.1605483
618 1 2.08027415 16.6421932 -2.08027415
619 1 0.0 16.6421932 0.0
620 1 2.08027415 16.6421932 2.08027415
621 1 0.0 16.6421932 4.1605483
622 1 4.1605483 -14.56191905 -2.08027415
623 1 4.1605483 -16.6421932 0.0
624 1 4.1605483 -14.56191905 2.08027415
625 1 6.24082245 -14.56191905 0.0
626 1 4.1605483 -10.40137075 -6.24082245
627 1 6.24082245 -12.4816449 -6.24082245
628 1 6.24082245 -10.40137075 -8.3210966
629 1 4.1605483 -12.4816449 -4.1605483
630 1 4.1605483 -10.40137075 -2.08027415
631 1 6.24082245 -12.4816449 -2.08027415
632 1 6.24082245 -10.40137075 -4.1605483
633 1 4.1605483 -12.4816449 0.0
634 1 4.1605483 -10.40137075 2.08027415
635 1 6.24082245 -12.4816449 2.08027415
636 1 6.24082245 -10.40137075 0.0
637 1 4.1605483 -12.4816449 4.1605483
638 1 4.1605483 -10.40137075 6.24082245
639 1 6.24082245 -12.4816449 6.24082245
640 1 6.24082245 -10.40137075 4.1605483
641 1 6.24082245 -10.40137075 8.3210966
642 1 4.1605483 -6.24082245 -10.40137075
643 1 6.24082245 -8.3210966 -10.40137075
644 1 6.24082245 -6.24082245 -12.4816449
645 1 4.1605483 -8.3210966 -8.3210966
646 1 4.1605483 -6.24082245 -6.24082245
647 1 6.24082245 -8.3210966 -6.24082245
648 1 6.24082245 -6.24082245 -8.3210966
649 1 4.1605483 -8.3210966 -4.1605483
650 1 4.1605483 -6.24082245 -2.08027415
651 1 6.24082245 -8.3210966 -2.08027415
652 1 6.24082245 -6.24082245 -4.1605483
653 1 4.1605483 -8.3210966 0.0
654 1 4.1605483 -6.24082245 2.08027415
655 1 6.24082245 -8.3210966 2.08027415
656 1 6.24082245 -6.24082245 0.0
657 1 4.1605483 -8.3210966 4.1605483
658 1 4.1605483 -6.24082245 6.24082245
659 1 6.24082245 -8.3210966 6.24082245
660 1 6.24082245 -6.24082245 4.1605483
661 1 4.1605483 -8.3210966 8.3210966
662 1 4.1605483 -6.24082245 10.40137075
663 1 6.24082245 -8.3210966 10.40137075
664 1 6.24082245 -6.24082245 8.3210966
665 1 6.24082245 -6.24082245 12.4816449
666 1 4.1605483 -2.08027415 -14.56191905
667 1 4.1605483 -4.1605483 -12.4816449
668 1 4.1605483 -2.08027415 -10.40137075
669 1 6.24082245 -4.1605483 -10.40137075
670 1 6.24082245 -2.08027415 -12.4816449
671 1 4.1605483 -4.1605483 -8.3210966
672 1 4.1605483 -2.08027415 -6.24082245
673 1 6.24082245 -4.1605483 -6.24082245
674 1 6.24082245 -2.08027415 -8.3210966
675 1 4.1605483 -4.1605483 -4.1605483
676 1 4.1605483 -2.08027415 -2.08027415
677 1 6.24082245 -4.1605483 -2.08027415
678 1 6.24082245 -2.08027415 -4.1605483
679 1 4.1605483 -4.1605483 0.0
680 1 4.1605483 -2.08027415 2.08027415
681 1 6.24082245 -4.1605483 2.08027415
682 1 6.24082245 -2.08027415 0.0
683 1 4.1605483 -4.1605483 4.1605483
684 1 4.1605483 -2.08027415 6.24082245
685 1 6.24082245 -4.1605483 6.24082245
686 1 6.24082245 -2.08027415 4.1605483
687 1 4.1605483 -4.1605483 8.3210966
688 1 4.1605483 -2.08027415 10.40137075
689 1 6.24082245 -4.1605483 10.40137075
690 1 6.24082245 -2.08027415 8.3210966
691 1 4.1605483 -4.1605483 12.4816449
692 1 4.1605483 -2.08027415 14.56191905
693 1 6.24082245 -2.08027415 12.4816449
694 1 4.1605483 0.0 -16.6421932
695 1 4.1605483 2.08027415 -14.56191905
696 1 6.24082245 0.0 -14.56191905
697 1 4.1605483 0.0 -12.4816449
698 1 4.1605483 2.08027415 -10.40137075
699 1 6.24082245 0.0 -10.40137075
700 1 6.24082245 2.08027415 -12.4816449
701 1 4.1605483 0.0 -8.3210966
702 1 4.1605483 2.08027415 -6.24082245
703 1 6.24082245 0.0 -6.24082245
704 1 6.24082245 2.08027415 -8.3210966
705 1 4.1605483 0.0 -4.1605483
706 1 4.1605483 2.08027415 -2.08027415
707 1 6.24082245 0.0 -2.08027415
708 1 6.24082245 2.08027415 -4.1605483
709 1 4.1605483 0.0 0.0
710 1 4.1605483 2.08027415 2.08027415
711 1 6.24082245 0.0 2.08027415
712 1 6.24082245 2.08027415 0.0
713 1 4.1605483 0.0 4.1605483
714 1 4.1605483 2.08027415 6.24082245
715 1 6.24082245 0.0 6.24082245
716 1 6.24082245 2.08027415 4.1605483
717 1 4.1605483 0.0 8.3210966
718 1 4.1605483 2.08027415 10.40137075
719 1 6.24082245 0.0 10.40137075
720 1 6.24082245 2.08027415 8.3210966
721 1 4.1605483 0.0 12.4816449
722 1 4.1605483 2.08027415 14.56191905
723 1 6.24082245 0.0 14.56191905
724 1 6.24082245 2.08027415 12.4816449
725 1 4.1605483 0.0 16.6421932
726 1 4.1605483 4.1605483 -12.4816449
727 1 4.1605483 6.24082245 -10.40137075
728 1 6.24082245 4.1605483 -10.40137075
729 1 6.24082245 6.24082245 -12.4816449
730 1 4.1605483 4.1605483 -8.3210966
731 1 4.1605483 6.24082245 -6.24082245
732 1 6.24082245 4.1605483 -6.24082245
733 1 6.24082245 6.24082245 -8.3210966
734 1 4.1605483 4.1605483 -4.1605483
735 1 4.1605483 6.24082245 -2.08027415
736 1 6.24082245 4.1605483 -2.08027415
737 1 6.24082245 6.24082245 -4.1605483
738 1 4.1605483 4.1605483 0.0
739 1 4.1605483 6.24082245 2.08027415
740 1 6.24082245 4.1605483 2.08027415
741 1 6.24082245 6.24082245 0.0
742 1 4.1605483 4.1605483 4.1605483
743 1 4.1605483 6.24082245 6.24082245
744 1 6.24082245 4.1605483 6.24082245
745 1 6.24082245 6.24082245 4.1605483
746 1 4.1605483 4.1605483 8.3210966
747 1 4.1605483 6.24082245 10.40137075
748 1 6.24082245 4.1605483 10.40137075
749 1 6.24082245 6.24082245 8.3210966
750 1 4.1605483 4.1605483 12.4816449
751 1 6.24082245 6.24082245 12.4816449
752 1 6.24082245 8.3210966 -10.40137075
753 1 4.1605483 8.3210966 -8.3210966
754 1 4.1605483 10.40137075 -6.24082245
755 1 6.24082245 8.3210966 -6.24082245
756 1 6.24082245 10.40137075 -8.3210966
757 1 4.1605483 8.3210966 -4.1605483
758 1 4.1605483 10.40137075 -2.08027415
759 1 6.24082245 8.3210966 -2.08027415
760 1 6.24082245 10.40137075 -4.1605483
761 1 4.1605483 8.3210966 0.0
762 1 4.1605483 10.40137075 2.08027415
763 1 6.24082245 8.3210966 2.08027415
764 1 6.24082245 10.40137075 0.0
765 1 4.1605483 8.3210966 4.1605483
766 1 4.1605483 10.40137075 6.24082245
767 1 6.24082245 8.3210966 6.24082245
768 1 6.24082245 10.40137075 4.1605483
769 1 4.1605483 8.3210966 8.3210966
770 1 6.24082245 8.3210966 10.40137075
771 1 6.24082245 10.40137075 8.3210966
772 1 6.24082245 12.4816449 -6.24082245
773 1 4.1605483 12.4816449 -4.1605483
774 1 4.1605483 14.56191905 -2.08027415
775 1 6.24082245 12.4816449 -2.08027415
776 1 4.1605483 12.4816449 0.0
777 1 4.1605483 14.56191905 2.08027415
778 1 6.24082245 12.4816449 2.08027415