# LAMMPS data file written by OVITO Basic 3.4.4
9585 atoms
1 atom types
-70 70 xlo xhi
-70 70 ylo yhi
-70 70 zlo zhi

Atoms  # atomic

1 1 -35.36466055 -14.56191905 0.0
2 1 -35.36466055 -12.4816449 -2.08027415
3 1 -35.36466055 -10.40137075 -4.1605483
4 1 -35.36466055 -12.4816449 2.08027415
5 1 -35.36466055 -10.40137075 0.0
6 1 -35.36466055 -10.40137075 4.1605483
7 1 -35.36466055 -8.3210966 -6.24082245
8 1 -35.36466055 -6.24082245 -8.3210966
9 1 -35.36466055 -8.3210966 -2.08027415
10 1 -35.36466055 -6.24082245 -4.1605483
11 1 -35.36466055 -8.3210966 2.08027415
12 1 -35.36466055 -6.24082245 0.0
13 1 -35.36466055 -8.3210966 6.24082245
14 1 -35.36466055 -6.24082245 4.1605483
15 1 -35.36466055 -6.24082245 8.3210966
16 1 -35.36466055 -4.1605483 -10.40137075
17 1 -35.36466055 -2.08027415 -12.4816449
18 1 -35.36466055 -4.1605483 -6.24082245
19 1 -35.36466055 -2.08027415 -8.3210966
20 1 -35.36466055 -4.1605483 -2.08027415
21 1 -35.36466055 -2.08027415 -4.1605483
22 1 -35.36466055 -4.1605483 2.08027415
23 1 -35.36466055 -2.08027415 0.0
24 1 -35.36466055 -4.1605483 6.24082245
25 1 -35.36466055 -2.08027415 4.1605483
26 1 -35.36466055 -4.1605483 10.40137075
27 1 -35.36466055 -2.08027415 8.3210966
28 1 -35.36466055 -2.08027415 12.4816449
29 1 -35.36466055 0.0 -14.56191905
30 1 -35.36466055 0.0 -10.40137075
31 1 -35.36466055 2.08027415 -12.4816449
32 1 -35.36466055 0.0 -6.24082245
33 1 -35.36466055 2.08027415 -8.3210966
34 1 -35.36466055 0.0 -2.08027415
35 1 -35.36466055 2.08027415 -4.1605483
36 1 -35.36466055 0.0 2.08027415
37 1 -35.36466055 2.08027415 0.0
38 1 -35.36466055 0.0 6.24082245
39 1 -35.36466055 2.08027415 4.1605483
40 1 -35.36466055 0.0 10.40137075
41 1 -35.36466055 2.08027415 8.3210966
42 1 -35.36466055 0.0 14.56191905
43 1 -35.36466055 2.08027415 12.4816449
44 1 -35.36466055 4.1605483 -10.40137075
45 1 -35.36466055 4.1605483 -6.24082245
46 1 -35.36466055 6.24082245 -8.3210966
47 1 -35.36466055 4.1605483 -2.08027415
48 1 -35.36466055 6.24082245 -4.1605483
49 1 -35.36466055 4.1605483 2.08027415
50 1 -35.36466055 6.24082245 0.0
51 1 -35.36466055 4.1605483 6.24082245
52 1 -35.36466055 6.24082245 4.1605483
53 1 -35.36466055 4.1605483 10.40137075
54 1 -35.36466055 6.24082245 8.3210966
55 1 -35.36466055 8.3210966 -6.24082245
56 1 -35.36466055 8.3210966 -2.08027415
57 1 -35.36466055 10.40137075 -4.1605483
58 1 -35.36466055 8.3210966 2.08027415
59 1 -35.36466055 10.40137075 0.0
60 1 -35.36466055 8.3210966 6.24082245
61 1 -35.36466055 10.40137075 4.1605483
62 1 -35.36466055 12.4816449 -2.08027415
63 1 -35.36466055 12.4816449 2.08027415
64 1 -35.36466055 14.56191905 0.0
65 1 -31.20411225 -18.72246735 0.0
66 1 -33.2843864 -14.56191905 -2.08027415
67 1 -31.20411225 -16.6421932 -2.08027415
68 1 -31.20411225 -14.56191905 -4.1605483
69 1 -33.2843864 -16.6421932 0.0
70 1 -33.2843864 -14.56191905 2.08027415
71 1 -31.20411225 -16.6421932 2.08027415
72 1 -31.20411225 -14.56191905 0.0
73 1 -31.20411225 -14.56191905 4.1605483
74 1 -33.2843864 -10.40137075 -6.24082245
75 1 -31.20411225 -12.4816449 -6.24082245
76 1 -31.20411225 -10.40137075 -8.3210966
77 1 -33.2843864 -12.4816449 -4.1605483
78 1 -33.2843864 -10.40137075 -2.08027415
79 1 -31.20411225 -12.4816449 -2.08027415
80 1 -31.20411225 -10.40137075 -4.1605483
81 1 -33.2843864 -12.4816449 0.0
82 1 -33.2843864 -10.40137075 2.08027415
83 1 -31.20411225 -12.4816449 2.08027415
84 1 -31.20411225 -10.40137075 0.0
85 1 -33.2843864 -12.4816449 4.1605483
86 1 -33.2843864 -10.40137075 6.24082245
87 1 -31.20411225 -12.4816449 6.24082245
88 1 -31.20411225 -10.40137075 4.1605483
89 1 -31.20411225 -10.40137075 8.3210966
90 1 -33.2843864 -6.24082245 -10.40137075
91 1 -31.20411225 -8.3210966 -10.40137075
92 1 -31.20411225 -6.24082245 -12.4816449
93 1 -33.2843864 -8.3210966 -8.3210966
94 1 -33.2843864 -6.24082245 -6.24082245
95 1 -31.20411225 -8.3210966 -6.24082245
96 1 -31.20411225 -6.24082245 -8.3210966
97 1 -33.2843864 -8.3210966 -4.1605483
98 1 -33.2843864 -6.24082245 -2.08027415
99 1 -31.20411225 -8.3210966 -2.08027415
100 1 -31.20411225 -6.24082245 -4.1605483
101 1 -33.2843864 -8.3210966 0.0
102 1 -33.2843864 -6.24082245 2.08027415
103 1 -31.20411225 -8.3210966 2.08027415
104 1 -31.20411225 -6.24082245 0.0
105 1 -33.2843864 -8.3210966 4.1605483
106 1 -33.2843864 -6.24082245 6.24082245
107 1 -31.20411225 -8.3210966 6.24082245
108 1 -31.20411225 -6.24082245 4.1605483
109 1 -33.2843864 -8.3210966 8.3210966
110 1 -33.2843864 -6.24082245 10.40137075
111 1 -31.20411225 -8.3210966 10.40137075
112 1 -31.20411225 -6.24082245 8.3210966
113 1 -31.20411225 -6.24082245 12.4816449
114 1 -33.2843864 -2.08027415 -14.56191905
115 1 -31.20411225 -4.1605483 -14.56191905
116 1 -31.20411225 -2.08027415 -16.6421932
117 1 -33.2843864 -4.1605483 -12.4816449
118 1 -33.2843864 -2.08027415 -10.40137075
119 1 -31.20411225 -4.1605483 -10.40137075
120 1 -31.20411225 -2.08027415 -12.4816449
121 1 -33.2843864 -4.1605483 -8.3210966
122 1 -33.2843864 -2.08027415 -6.24082245
123 1 -31.20411225 -4.1605483 -6.24082245
124 1 -31.20411225 -2.08027415 -8.3210966
125 1 -33.2843864 -4.1605483 -4.1605483
126 1 -33.2843864 -2.08027415 -2.08027415
127 1 -31.20411225 -4.1605483 -2.08027415
128 1 -31.20411225 -2.08027415 -4.1605483
129 1 -33.2843864 -4.1605483 0.0
130 1 -33.2843864 -2.08027415 2.08027415
131 1 -31.20411225 -4.1605483 2.08027415
132 1 -31.20411225 -2.08027415 0.0
133 1 -33.2843864 -4.1605483 4.1605483
134 1 -33.2843864 -2.08027415 6.24082245
135 1 -31.20411225 -4.1605483 6.24082245
136 1 -31.20411225 -2.08027415 4.1605483
137 1 -33.2843864 -4.1605483 8.3210966
138 1 -33.2843864 -2.08027415 10.40137075
139 1 -31.20411225 -4.1605483 10.40137075
140 1 -31.20411225 -2.08027415 8.3210966
141 1 -33.2843864 -4.1605483 12.4816449
142 1 -33.2843864 -2.08027415 14.56191905
143 1 -31.20411225 -4.1605483 14.56191905
144 1 -31.20411225 -2.08027415 12.4816449
145 1 -31.20411225 -2.08027415 16.6421932
146 1 -31.20411225 0.0 -18.72246735
147 1 -33.2843864 0.0 -16.6421932
148 1 -33.2843864 2.08027415 -14.56191905
149 1 -31.20411225 0.0 -14.56191905
150 1 -31.20411225 2.08027415 -16.6421932
151 1 -33.2843864 0.0 -12.4816449
152 1 -33.2843864 2.08027415 -10.40137075
153 1 -31.20411225 0.0 -10.40137075
154 1 -31.20411225 2.08027415 -12.4816449
155 1 -33.2843864 0.0 -8.3210966
156 1 -33.2843864 2.08027415 -6.24082245
157 1 -31.20411225 0.0 -6.24082245
158 1 -31.20411225 2.08027415 -8.3210966
159 1 -33.2843864 0.0 -4.1605483
160 1 -33.2843864 2.08027415 -2.08027415
161 1 -31.20411225 0.0 -2.08027415
162 1 -31.20411225 2.08027415 -4.1605483
163 1 -33.2843864 0.0 0.0
164 1 -33.2843864 2.08027415 2.08027415
165 1 -31.20411225 0.0 2.08027415
166 1 -31.20411225 2.08027415 0.0
167 1 -33.2843864 0.0 4.1605483
168 1 -33.2843864 2.08027415 6.24082245
169 1 -31.20411225 0.0 6.24082245
170 1 -31.20411225 2.08027415 4.1605483
171 1 -33.2843864 0.0 8.3210966
172 1 -33.2843864 2.08027415 10.40137075
173 1 -31.20411225 0.0 10.40137075
174 1 -31.20411225 2.08027415 8.3210966
175 1 -33.2843864 0.0 12.4816449
176 1 -33.2843864 2.08027415 14.56191905
177 1 -31.20411225 0.0 14.56191905
178 1 -31.20411225 2.08027415 12.4816449
179 1 -33.2843864 0.0 16.6421932
180 1 -31.20411225 0.0 18.72246735
181 1 -31.20411225 2.08027415 16.6421932
182 1 -31.20411225 4.1605483 -14.56191905
183 1 -33.2843864 4.1605483 -12.4816449
184 1 -33.2843864 6.24082245 -10.40137075
185 1 -31.20411225 4.1605483 -10.40137075
186 1 -31.20411225 6.24082245 -12.4816449
187 1 -33.2843864 4.1605483 -8.3210966
188 1 -33.2843864 6.24082245 -6.24082245
189 1 -31.20411225 4.1605483 -6.24082245
190 1 -31.20411225 6.24082245 -8.3210966
191 1 -33.2843864 4.1605483 -4.1605483
192 1 -33.2843864 6.24082245 -2.08027415
193 1 -31.20411225 4.1605483 -2.08027415
194 1 -31.20411225 6.24082245 -4.1605483
195 1 -33.2843864 4.1605483 0.0
196 1 -33.2843864 6.24082245 2.08027415
197 1 -31.20411225 4.1605483 2.08027415
198 1 -31.20411225 6.24082245 0.0
199 1 -33.2843864 4.1605483 4.1605483
200 1 -33.2843864 6.24082245 6.24082245
201 1 -31.20411225 4.1605483 6.24082245
202 1 -31.20411225 6.24082245 4.1605483
203 1 -33.2843864 4.1605483 8.3210966
204 1 -33.2843864 6.24082245 10.40137075
205 1 -31.20411225 4.1605483 10.40137075
206 1 -31.20411225 6.24082245 8.3210966
207 1 -33.2843864 4.1605483 12.4816449
208 1 -31.20411225 4.1605483 14.56191905
209 1 -31.20411225 6.24082245 12.4816449
210 1 -31.20411225 8.3210966 -10.40137075
211 1 -33.2843864 8.3210966 -8.3210966
212 1 -33.2843864 10.40137075 -6.24082245
213 1 -31.20411225 8.3210966 -6.24082245
214 1 -31.20411225 10.40137075 -8.3210966
215 1 -33.2843864 8.3210966 -4.1605483
216 1 -33.2843864 10.40137075 -2.08027415
217 1 -31.20411225 8.3210966 -2.08027415
218 1 -31.20411225 10.40137075 -4.1605483
219 1 -33.2843864 8.3210966 0.0
220 1 -33.2843864 10.40137075 2.08027415
221 1 -31.20411225 8.3210966 2.08027415
222 1 -31.20411225 10.40137075 0.0
223 1 -33.2843864 8.3210966 4.1605483
224 1 -33.2843864 10.40137075 6.24082245
225 1 -31.20411225 8.3210966 6.24082245
226 1 -31.20411225 10.40137075 4.1605483
227 1 -33.2843864 8.3210966 8.3210966
228 1 -31.20411225 8.3210966 10.40137075
229 1 -31.20411225 10.40137075 8.3210966
230 1 -31.20411225 12.4816449 -6.24082245
231 1 -33.2843864 12.4816449 -4.1605483
232 1 -33.2843864 14.56191905 -2.08027415
233 1 -31.20411225 12.4816449 -2.08027415
234 1 -31.20411225 14.56191905 -4.1605483
235 1 -33.2843864 12.4816449 0.0
236 1 -33.2843864 14.56191905 2.08027415
237 1 -31.20411225 12.4816449 2.08027415
238 1 -31.20411225 14.56191905 0.0
239 1 -33.2843864 12.4816449 4.1605483
240 1 -31.20411225 12.4816449 6.24082245
241 1 -31.20411225 14.56191905 4.1605483
242 1 -31.20411225 16.6421932 -2.08027415
243 1 -33.2843864 16.6421932 0.0
244 1 -31.20411225 16.6421932 2.08027415
245 1 -31.20411225 18.72246735 0.0
246 1 -27.04356395 -22.88301565 0.0
247 1 -29.1238381 -18.72246735 -2.08027415
248 1 -27.04356395 -20.8027415 -2.08027415
249 1 -27.04356395 -18.72246735 -4.1605483
250 1 -29.1238381 -20.8027415 0.0
251 1 -29.1238381 -18.72246735 2.08027415
252 1 -27.04356395 -20.8027415 2.08027415
253 1 -27.04356395 -18.72246735 0.0
254 1 -27.04356395 -18.72246735 4.1605483
255 1 -29.1238381 -14.56191905 -6.24082245
256 1 -27.04356395 -16.6421932 -6.24082245
257 1 -27.04356395 -14.56191905 -8.3210966
258 1 -29.1238381 -16.6421932 -4.1605483
259 1 -29.1238381 -14.56191905 -2.08027415
260 1 -27.04356395 -16.6421932 -2.08027415
261 1 -27.04356395 -14.56191905 -4.1605483
262 1 -29.1238381 -16.6421932 0.0
263 1 -29.1238381 -14.56191905 2.08027415
264 1 -27.04356395 -16.6421932 2.08027415
265 1 -27.04356395 -14.56191905 0.0
266 1 -29.1238381 -16.6421932 4.1605483
267 1 -29.1238381 -14.56191905 6.24082245
268 1 -27.04356395 -16.6421932 6.24082245
269 1 -27.04356395 -14.56191905 4.1605483
270 1 -27.04356395 -14.56191905 8.3210966
271 1 -29.1238381 -10.40137075 -10.40137075
272 1 -27.04356395 -12.4816449 -10.40137075
273 1 -27.04356395 -10.40137075 -12.4816449
274 1 -29.1238381 -12.4816449 -8.3210966
275 1 -29.1238381 -10.40137075 -6.24082245
276 1 -27.04356395 -12.4816449 -6.24082245
277 1 -27.04356395 -10.40137075 -8.3210966
278 1 -29.1238381 -12.4816449 -4.1605483
279 1 -29.1238381 -10.40137075 -2.08027415
280 1 -27.04356395 -12.4816449 -2.08027415
281 1 -27.04356395 -10.40137075 -4.1605483
282 1 -29.1238381 -12.4816449 0.0
283 1 -29.1238381 -10.40137075 2.08027415
284 1 -27.04356395 -12.4816449 2.08027415
285 1 -27.04356395 -10.40137075 0.0
286 1 -29.1238381 -12.4816449 4.1605483
287 1 -29.1238381 -10.40137075 6.24082245
288 1 -27.04356395 -12.4816449 6.24082245
289 1 -27.04356395 -10.40137075 4.1605483
290 1 -29.1238381 -12.4816449 8.3210966
291 1 -29.1238381 -10.40137075 10.40137075
292 1 -27.04356395 -12.4816449 10.40137075
293 1 -27.04356395 -10.40137075 8.3210966
294 1 -27.04356395 -10.40137075 12.4816449
295 1 -29.1238381 -6.24082245 -14.56191905
296 1 -27.04356395 -8.3210966 -14.56191905
297 1 -27.04356395 -6.24082245 -16.6421932
298 1 -29.1238381 -8.3210966 -12.4816449
299 1 -29.1238381 -6.24082245 -10.40137075
300 1 -27.04356395 -8.3210966 -10.40137075
301 1 -27.04356395 -6.24082245 -12.4816449
302 1 -29.1238381 -8.3210966 -8.3210966
303 1 -29.1238381 -6.24082245 -6.24082245
304 1 -27.04356395 -8.3210966 -6.24082245
305 1 -27.04356395 -6.24082245 -8.3210966
306 1 -29.1238381 -8.3210966 -4.1605483
307 1 -29.1238381 -6.24082245 -2.08027415
308 1 -27.04356395 -8.3210966 -2.08027415
309 1 -27.04356395 -6.24082245 -4.1605483
310 1 -29.1238381 -8.3210966 0.0
311 1 -29.1238381 -6.24082245 2.08027415
312 1 -27.04356395 -8.3210966 2.08027415
313 1 -27.04356395 -6.24082245 0.0
314 1 -29.1238381 -8.3210966 4.1605483
315 1 -29.1238381 -6.24082245 6.24082245
316 1 -27.04356395 -8.3210966 6.24082245
317 1 -27.04356395 -6.24082245 4.1605483
318 1 -29.1238381 -8.3210966 8.3210966
319 1 -29.1238381 -6.24082245 10.40137075
320 1 -27.04356395 -8.3210966 10.40137075
321 1 -27.04356395 -6.24082245 8.3210966
322 1 -29.1238381 -8.3210966 12.4816449
323 1 -29.1238381 -6.24082245 14.56191905
324 1 -27.04356395 -8.3210966 14.56191905
325 1 -27.04356395 -6.24082245 12.4816449
326 1 -27.04356395 -6.24082245 16.6421932
327 1 -29.1238381 -2.08027415 -18.72246735
328 1 -27.04356395 -4.1605483 -18.72246735
329 1 -27.04356395 -2.08027415 -20.8027415
330 1 -29.1238381 -4.1605483 -16.6421932
331 1 -29.1238381 -2.08027415 -14.56191905
332 1 -27.04356395 -4.1605483 -14.56191905
333 1 -27.04356395 -2.08027415 -16.6421932
334 1 -29.1238381 -4.1605483 -12.4816449
335 1 -29.1238381 -2.08027415 -10.40137075
336 1 -27.04356395 -4.1605483 -10.40137075
337 1 -27.04356395 -2.08027415 -12.4816449
338 1 -29.1238381 -4.1605483 -8.3210966
339 1 -29.1238381 -2.08027415 -6.24082245
340 1 -27.04356395 -4.1605483 -6.24082245
341 1 -27.04356395 -2.08027415 -8.3210966
342 1 -29.1238381 -4.1605483 -4.1605483
343 1 -29.1238381 -2.08027415 -2.08027415
344 1 -27.04356395 -4.1605483 -2.08027415
345 1 -27.04356395 -2.08027415 -4.1605483
346 1 -29.1238381 -4.1605483 0.0
347 1 -29.1238381 -2.08027415 2.08027415
348 1 -27.04356395 -4.1605483 2.08027415
349 1 -27.04356395 -2.08027415 0.0
350 1 -29.1238381 -4.1605483 4.1605483
351 1 -29.1238381 -2.08027415 6.24082245
352 1 -27.04356395 -4.1605483 6.24082245
353 1 -27.04356395 -2.08027415 4.1605483
354 1 -29.1238381 -4.1605483 8.3210966
355 1 -29.1238381 -2.08027415 10.40137075
356 1 -27.04356395 -4.1605483 10.40137075
357 1 -27.04356395 -2.08027415 8.3210966
358 1 -29.1238381 -4.1605483 12.4816449
359 1 -29.1238381 -2.08027415 14.56191905
360 1 -27.04356395 -4.1605483 14.56191905
361 1 -27.04356395 -2.08027415 12.4816449
362 1 -29.1238381 -4.1605483 16.6421932
363 1 -29.1238381 -2.08027415 18.72246735
364 1 -27.04356395 -4.1605483 18.72246735
365 1 -27.04356395 -2.08027415 16.6421932
366 1 -27.04356395 -2.08027415 20.8027415
367 1 -27.04356395 0.0 -22.88301565
368 1 -29.1238381 0.0 -20.8027415
369 1 -29.1238381 2.08027415 -18.72246735
370 1 -27.04356395 0.0 -18.72246735
371 1 -27.04356395 2.08027415 -20.8027415
372 1 -29.1238381 0.0 -16.6421932
373 1 -29.1238381 2.08027415 -14.56191905
374 1 -27.04356395 0.0 -14.56191905
375 1 -27.04356395 2.08027415 -16.6421932
376 1 -29.1238381 0.0 -12.4816449
377 1 -29.1238381 2.08027415 -10.40137075
378 1 -27.04356395 0.0 -10.40137075
379 1 -27.04356395 2.08027415 -12.4816449
380 1 -29.1238381 0.0 -8.3210966
381 1 -29.1238381 2.08027415 -6.24082245
382 1 -27.04356395 0.0 -6.24082245
383 1 -27.04356395 2.08027415 -8.3210966
384 1 -29.1238381 0.0 -4.1605483
385 1 -29.1238381 2.08027415 -2.08027415
386 1 -27.04356395 0.0 -2.08027415
387 1 -27.04356395 2.08027415 -4.1605483
388 1 -29.1238381 0.0 0.0
389 1 -29.1238381 2.08027415 2.08027415
390 1 -27.04356395 0.0 2.08027415
391 1 -27.04356395 2.08027415 0.0
392 1 -29.1238381 0.0 4.1605483
393 1 -29.1238381 2.08027415 6.24082245
394 1 -27.04356395 0.0 6.24082245
395 1 -27.04356395 2.08027415 4.1605483
396 1 -29.1238381 0.0 8.3210966
397 1 -29.1238381 2.08027415 10.40137075
398 1 -27.04356395 0.0 10.40137075
399 1 -27.04356395 2.08027415 8.3210966
400 1 -29.1238381 0.0 12.4816449
401 1 -29.1238381 2.08027415 14.56191905
402 1 -27.04356395 0.0 14.56191905
403 1 -27.04356395 2.08027415 12.4816449
404 1 -29.1238381 0.0 16.6421932
405 1 -29.1238381 2.08027415 18.72246735
406 1 -27.04356395 0.0 18.72246735
407 1 -27.04356395 2.08027415 16.6421932
408 1 -29.1238381 0.0 20.8027415
409 1 -27.04356395 0.0 22.88301565
410 1 -27.04356395 2.08027415 20.8027415
411 1 -27.04356395 4.1605483 -18.72246735
412 1 -29.1238381 4.1605483 -16.6421932
413 1 -29.1238381 6.24082245 -14.56191905
414 1 -27.04356395 4.1605483 -14.56191905
415 1 -27.04356395 6.24082245 -16.6421932
416 1 -29.1238381 4.1605483 -12.4816449
417 1 -29.1238381 6.24082245 -10.40137075
418 1 -27.04356395 4.1605483 -10.40137075
419 1 -27.04356395 6.24082245 -12.4816449
420 1 -29.1238381 4.1605483 -8.3210966
421 1 -29.1238381 6.24082245 -6.24082245
422 1 -27.04356395 4.1605483 -6.24082245
423 1 -27.04356395 6.24082245 -8.3210966
424 1 -29.1238381 4.1605483 -4.1605483
425 1 -29.1238381 6.24082245 -2.08027415
426 1 -27.04356395 4.1605483 -2.08027415
427 1 -27.04356395 6.24082245 -4.1605483
428 1 -29.1238381 4.1605483 0.0
429 1 -29.1238381 6.24082245 2.08027415
430 1 -27.04356395 4.1605483 2.08027415
431 1 -27.04356395 6.24082245 0.0
432 1 -29.1238381 4.1605483 4.1605483
433 1 -29.1238381 6.24082245 6.24082245
434 1 -27.04356395 4.1605483 6.24082245
435 1 -27.04356395 6.24082245 4.1605483
436 1 -29.1238381 4.1605483 8.3210966
437 1 -29.1238381 6.24082245 10.40137075
438 1 -27.04356395 4.1605483 10.40137075
439 1 -27.04356395 6.24082245 8.3210966
440 1 -29.1238381 4.1605483 12.4816449
441 1 -29.1238381 6.24082245 14.56191905
442 1 -27.04356395 4.1605483 14.56191905
443 1 -27.04356395 6.24082245 12.4816449
444 1 -29.1238381 4.1605483 16.6421932
445 1 -27.04356395 4.1605483 18.72246735
446 1 -27.04356395 6.24082245 16.6421932
447 1 -27.04356395 8.3210966 -14.56191905
448 1 -29.1238381 8.3210966 -12.4816449
449 1 -29.1238381 10.40137075 -10.40137075
450 1 -27.04356395 8.3210966 -10.40137075
451 1 -27.04356395 10.40137075 -12.4816449
452 1 -29.1238381 8.3210966 -8.3210966
453 1 -29.1238381 10.40137075 -6.24082245
454 1 -27.04356395 8.3210966 -6.24082245
455 1 -27.04356395 10.40137075 -8.3210966
456 1 -29.1238381 8.3210966 -4.1605483
457 1 -29.1238381 10.40137075 -2.08027415
458 1 -27.04356395 8.3210966 -2.08027415
459 1 -27.04356395 10.40137075 -4.1605483
460 1 -29.1238381 8.3210966 0.0
461 1 -29.1238381 10.40137075 2.08027415
462 1 -27.04356395 8.3210966 2.08027415
463 1 -27.04356395 10.40137075 0.0
464 1 -29.1238381 8.3210966 4.1605483
465 1 -29.1238381 10.40137075 6.24082245
466 1 -27.04356395 8.3210966 6.24082245
467 1 -27.04356395 10.40137075 4.1605483
468 1 -29.1238381 8.3210966 8.3210966
469 1 -29.1238381 10.40137075 10.40137075
470 1 -27.04356395 8.3210966 10.40137075
471 1 -27.04356395 10.40137075 8.3210966
472 1 -29.1238381 8.3210966 12.4816449
473 1 -27.04356395 8.3210966 14.56191905
474 1 -27.04356395 10.40137075 12.4816449
475 1 -27.04356395 12.4816449 -10.40137075
476 1 -29.1238381 12.4816449 -8.3210966
477 1 -29.1238381 14.56191905 -6.24082245
478 1 -27.04356395 12.4816449 -6.24082245
479 1 -27.04356395 14.56191905 -8.3210966
480 1 -29.1238381 12.4816449 -4.1605483
481 1 -29.1238381 14.56191905 -2.08027415
482 1 -27.04356395 12.4816449 -2.08027415
483 1 -27.04356395 14.56191905 -4.1605483
484 1 -29.1238381 12.4816449 0.0
485 1 -29.1238381 14.56191905 2.08027415
486 1 -27.04356395 12.4816449 2.08027415
487 1 -27.04356395 14.56191905 0.0
488 1 -29.1238381 12.4816449 4.1605483
489 1 -29.1238381 14.56191905 6.24082245
490 1 -27.04356395 12.4816449 6.24082245
491 1 -27.04356395 14.56191905 4.1605483
492 1 -29.1238381 12.4816449 8.3210966
493 1 -27.04356395 12.4816449 10.40137075
494 1 -27.04356395 14.56191905 8.3210966
495 1 -27.04356395 16.6421932 -6.24082245
496 1 -29.1238381 16.6421932 -4.1605483
497 1 -29.1238381 18.72246735 -2.08027415
498 1 -27.04356395 16.6421932 -2.08027415
499 1 -27.04356395 18.72246735 -4.1605483
500 1 -29.1238381 16.6421932 0.0
501 1 -29.1238381 18.72246735 2.08027415
502 1 -27.04356395 16.6421932 2.08027415
503 1 -27.04356395 18.72246735 0.0
504 1 -29.1238381 16.6421932 4.1605483
505 1 -27.04356395 16.6421932 6.24082245
506 1 -27.04356395 18.72246735 4.1605483
507 1 -27.04356395 20.8027415 -2.08027415
508 1 -29.1238381 20.8027415 0.0
509 1 -27.04356395 20.8027415 2.08027415
510 1 -27.04356395 22.88301565 0.0
511 1 -22.88301565 -27.04356395 0.0
512 1 -24.9632898 -22.88301565 -2.08027415
513 1 -22.88301565 -24.9632898 -2.08027415
514 1 -22.88301565 -22.88301565 -4.1605483
515 1 -24.9632898 -24.9632898 0.0
516 1 -24.9632898 -22.88301565 2.08027415
517 1 -22.88301565 -24.9632898 2.08027415
518 1 -22.88301565 -22.88301565 0.0
519 1 -22.88301565 -22.88301565 4.1605483
520 1 -24.9632898 -18.72246735 -6.24082245
521 1 -22.88301565 -20.8027415 -6.24082245
522 1 -22.88301565 -18.72246735 -8.3210966
523 1 -24.9632898 -20.8027415 -4.1605483
524 1 -24.9632898 -18.72246735 -2.08027415
525 1 -22.88301565 -20.8027415 -2.08027415
526 1 -22.88301565 -18.72246735 -4.1605483
527 1 -24.9632898 -20.8027415 0.0
528 1 -24.9632898 -18.72246735 2.08027415
529 1 -22.88301565 -20.8027415 2.08027415
530 1 -22.88301565 -18.72246735 0.0
531 1 -24.9632898 -20.8027415 4.1605483
532 1 -24.9632898 -18.72246735 6.24082245
533 1 -22.88301565 -20.8027415 6.24082245
534 1 -22.88301565 -18.72246735 4.1605483
535 1 -22.88301565 -18.72246735 8.3210966
536 1 -24.9632898 -14.56191905 -10.40137075
537 1 -22.88301565 -16.6421932 -10.40137075
538 1 -22.88301565 -14.56191905 -12.4816449
539 1 -24.9632898 -16.6421932 -8.3210966
540 1 -24.9632898 -14.56191905 -6.24082245
541 1 -22.88301565 -16.6421932 -6.24082245
542 1 -22.88301565 -14.56191905 -8.3210966
543 1 -24.9632898 -16.6421932 -4.1605483
544 1 -24.9632898 -14.56191905 -2.08027415
545 1 -22.88301565 -16.6421932 -2.08027415
546 1 -22.88301565 -14.56191905 -4.1605483
547 1 -24.9632898 -16.6421932 0.0
548 1 -24.9632898 -14.56191905 2.08027415
549 1 -22.88301565 -16.6421932 2.08027415
550 1 -22.88301565 -14.56191905 0.0
551 1 -24.9632898 -16.6421932 4.1605483
552 1 -24.9632898 -14.56191905 6.24082245
553 1 -22.88301565 -16.6421932 6.24082245
554 1 -22.88301565 -14.56191905 4.1605483
555 1 -24.9632898 -16.6421932 8.3210966
556 1 -24.9632898 -14.56191905 10.40137075
557 1 -22.88301565 -16.6421932 10.40137075
558 1 -22.88301565 -14.56191905 8.3210966
559 1 -22.88301565 -14.56191905 12.4816449
560 1 -24.9632898 -10.40137075 -14.56191905
561 1 -22.88301565 -12.4816449 -14.56191905
562 1 -22.88301565 -10.40137075 -16.6421932
563 1 -24.9632898 -12.4816449 -12.4816449
564 1 -24.9632898 -10.40137075 -10.40137075
565 1 -22.88301565 -12.4816449 -10.40137075
566 1 -22.88301565 -10.40137075 -12.4816449
567 1 -24.9632898 -12.4816449 -8.3210966
568 1 -24.9632898 -10.40137075 -6.24082245
569 1 -22.88301565 -12.4816449 -6.24082245
570 1 -22.88301565 -10.40137075 -8.3210966
571 1 -24.9632898 -12.4816449 -4.1605483
572 1 -24.9632898 -10.40137075 -2.08027415
573 1 -22.88301565 -12.4816449 -2.08027415
574 1 -22.88301565 -10.40137075 -4.1605483
575 1 -24.9632898 -12.4816449 0.0
576 1 -24.9632898 -10.40137075 2.08027415
577 1 -22.88301565 -12.4816449 2.08027415
578 1 -22.88301565 -10.40137075 0.0
579 1 -24.9632898 -12.4816449 4.1605483
580 1 -24.9632898 -10.40137075 6.24082245
581 1 -22.88301565 -12.4816449 6.24082245
582 1 -22.88301565 -10.40137075 4.1605483
583 1 -24.9632898 -12.4816449 8.3210966
584 1 -24.9632898 -10.40137075 10.40137075
585 1 -22.88301565 -12.4816449 10.40137075
586 1 -22.88301565 -10.40137075 8.3210966
587 1 -24.9632898 -12.4816449 12.4816449
588 1 -24.9632898 -10.40137075 14.56191905
589 1 -22.88301565 -12.4816449 14.56191905
590 1 -22.88301565 -10.40137075 12.4816449
591 1 -22.88301565 -10.40137075 16.6421932
592 1 -24.9632898 -6.24082245 -18.72246735
593 1 -22.88301565 -8.3210966 -18.72246735
594 1 -22.88301565 -6.24082245 -20.8027415
595 1 -24.9632898 -8.3210966 -16.6421932
596 1 -24.9632898 -6.24082245 -14.56191905
597 1 -22.88301565 -8.3210966 -14.56191905
598 1 -22.88301565 -6.24082245 -16.6421932
599 1 -24.9632898 -8.3210966 -12.4816449
600 1 -24.9632898 -6.24082245 -10.40137075
601 1 -22.88301565 -8.3210966 -10.40137075
602 1 -22.88301565 -6.24082245 -12.4816449
603 1 -24.9632898 -8.3210966 -8.3210966
604 1 -24.9632898 -6.24082245 -6.24082245
605 1 -22.88301565 -8.3210966 -6.24082245
606 1 -22.88301565 -6.24082245 -8.3210966
607 1 -24.9632898 -8.3210966 -4.1605483
608 1 -24.9632898 -6.24082245 -2.08027415
609 1 -22.88301565 -8.3210966 -2.08027415
610 1 -22.88301565 -6.24082245 -4.1605483
611 1 -24.9632898 -8.3210966 0.0
612 1 -24.9632898 -6.24082245 2.08027415
613 1 -22.88301565 -8.3210966 2.08027415
614 1 -22.88301565 -6.24082245 0.0
615 1 -24.9632898 -8.3210966 4.1605483
616 1 -24.9632898 -6.24082245 6.24082245
617 1 -22.88301565 -8.3210966 6.24082245
618 1 -22.88301565 -6.24082245 4.1605483
619 1 -24.9632898 -8.3210966 8.3210966
620 1 -24.9632898 -6.24082245 10.40137075
621 1 -22.88301565 -8.3210966 10.40137075
622 1 -22.88301565 -6.24082245 8.3210966
623 1 -24.9632898 -8.3210966 12.4816449
624 1 -24.9632898 -6.24082245 14.56191905
625 1 -22.88301565 -8.3210966 14.56191905
626 1 -22.88301565 -6.24082245 12.4816449
627 1 -24.9632898 -8.3210966 16.6421932
628 1 -24.9632898 -6.24082245 18.72246735
629 1 -22.88301565 -8.3210966 18.72246735
630 1 -22.88301565 -6.24082245 16.6421932
631 1 -22.88301565 -6.24082245 20.8027415
632 1 -24.9632898 -2.08027415 -22.88301565
633 1 -22.88301565 -4.1605483 -22.88301565
634 1 -22.88301565 -2.08027415 -24.9632898
635 1 -24.9632898 -4.1605483 -20.8027415
636 1 -24.9632898 -2.08027415 -18.72246735
637 1 -22.88301565 -4.1605483 -18.72246735
638 1 -22.88301565 -2.08027415 -20.8027415
639 1 -24.9632898 -4.1605483 -16.6421932
640 1 -24.9632898 -2.08027415 -14.56191905
641 1 -22.88301565 -4.1605483 -14.56191905
642 1 -22.88301565 -2.08027415 -16.6421932
643 1 -24.9632898 -4.1605483 -12.4816449
644 1 -24.9632898 -2.08027415 -10.40137075
645 1 -22.88301565 -4.1605483 -10.40137075
646 1 -22.88301565 -2.08027415 -12.4816449
647 1 -24.9632898 -4.1605483 -8.3210966
648 1 -24.9632898 -2.08027415 -6.24082245
649 1 -22.88301565 -4.1605483 -6.24082245
650 1 -22.88301565 -2.08027415 -8.3210966
651 1 -24.9632898 -4.1605483 -4.1605483
652 1 -24.9632898 -2.08027415 -2.08027415
653 1 -22.88301565 -4.1605483 -2.08027415
654 1 -22.88301565 -2.08027415 -4.1605483
655 1 -24.9632898 -4.1605483 0.0
656 1 -24.9632898 -2.08027415 2.08027415
657 1 -22.88301565 -4.1605483 2.08027415
658 1 -22.88301565 -2.08027415 0.0
659 1 -24.9632898 -4.1605483 4.1605483
660 1 -24.9632898 -2.08027415 6.24082245
661 1 -22.88301565 -4.1605483 6.24082245
662 1 -22.88301565 -2.08027415 4.1605483
663 1 -24.9632898 -4.1605483 8.3210966
664 1 -24.9632898 -2.08027415 10.40137075
665 1 -22.88301565 -4.1605483 10.40137075
666 1 -22.88301565 -2.08027415 8.3210966
667 1 -24.9632898 -4.1605483 12.4816449
668 1 -24.9632898 -2.08027415 14.56191905
669 1 -22.88301565 -4.1605483 14.56191905
670 1 -22.88301565 -2.08027415 12.4816449
671 1 -24.9632898 -4.1605483 16.6421932
672 1 -24.9632898 -2.08027415 18.72246735
673 1 -22.88301565 -4.1605483 18.72246735
674 1 -22.88301565 -2.08027415 16.6421932
675 1 -24.9632898 -4.1605483 20.8027415
676 1 -24.9632898 -2.08027415 22.88301565
677 1 -22.88301565 -4.1605483 22.88301565
678 1 -22.88301565 -2.08027415 20.8027415
679 1 -22.88301565 -2.08027415 24.9632898
680 1 -22.88301565 0.0 -27.04356395
681 1 -24.9632898 0.0 -24.9632898
682 1 -24.9632898 2.08027415 -22.88301565
683 1 -22.88301565 0.0 -22.88301565
684 1 -22.88301565 2.08027415 -24.9632898
685 1 -24.9632898 0.0 -20.8027415
686 1 -24.9632898 2.08027415 -18.72246735
687 1 -22.88301565 0.0 -18.72246735
688 1 -22.88301565 2.08027415 -20.8027415
689 1 -24.9632898 0.0 -16.6421932
690 1 -24.9632898 2.08027415 -14.56191905
691 1 -22.88301565 0.0 -14.56191905
692 1 -22.88301565 2.08027415 -16.6421932
693 1 -24.9632898 0.0 -12.4816449
694 1 -24.9632898 2.08027415 -10.40137075
695 1 -22.88301565 0.0 -10.40137075
696 1 -22.88301565 2.08027415 -12.4816449
697 1 -24.9632898 0.0 -8.3210966
698 1 -24.9632898 2.08027415 -6.24082245
699 1 -22.88301565 0.0 -6.24082245
700 1 -22.88301565 2.08027415 -8.3210966
701 1 -24.9632898 0.0 -4.1605483
702 1 -24.9632898 2.08027415 -2.08027415
703 1 -22.88301565 0.0 -2.08027415
704 1 -22.88301565 2.08027415 -4.1605483
705 1 -24.9632898 0.0 0.0
706 1 -24.9632898 2.08027415 2.08027415
707 1 -22.88301565 0.0 2.08027415
708 1 -22.88301565 2.08027415 0.0
709 1 -24.9632898 0.0 4.1605483
710 1 -24.9632898 2.08027415 6.24082245
711 1 -22.88301565 0.0 6.24082245
712 1 -22.88301565 2.08027415 4.1605483
713 1 -24.9632898 0.0 8.3210966
714 1 -24.9632898 2.08027415 10.40137075
715 1 -22.88301565 0.0 10.40137075
716 1 -22.88301565 2.08027415 8.3210966
717 1 -24.9632898 0.0 12.4816449
718 1 -24.9632898 2.08027415 14.56191905
719 1 -22.88301565 0.0 14.56191905
720 1 -22.88301565 2.08027415 12.4816449
721 1 -24.9632898 0.0 16.6421932
722 1 -24.9632898 2.08027415 18.72246735
723 1 -22.88301565 0.0 18.72246735
724 1 -22.88301565 2.08027415 16.6421932
725 1 -24.9632898 0.0 20.8027415
726 1 -24.9632898 2.08027415 22.88301565
727 1 -22.88301565 0.0 22.88301565
728 1 -22.88301565 2.08027415 20.8027415