# LAMMPS data file written by OVITO Basic 3.4.4
93 atoms
1 atom types
-23.3210966 23.3210966 xlo xhi
-23.3210966 23.3210966 ylo yhi
-23.3210966 23.3210966 zlo zhi

Atoms  # atomic

1 1 -6.24082245 -2.08027415 0.0
2 1 -6.24082245 0.0 -2.08027415
3 1 -8.3210966 0.0 0.0
4 1 -6.24082245 0.0 2.08027415
5 1 -6.24082245 2.08027415 0.0
6 1 -2.08027415 -6.24082245 0.0
7 1 -4.1605483 -4.1605483 -4.1605483
8 1 -4.1605483 -2.08027415 -2.08027415
9 1 -2.08027415 -4.1605483 -2.08027415
10 1 -2.08027415 -2.08027415 -4.1605483
11 1 -4.1605483 -4.1605483 0.0
12 1 -4.1605483 -2.08027415 2.08027415
13 1 -2.08027415 -4.1605483 2.08027415
14 1 -2.08027415 -2.08027415 0.0
15 1 -4.1605483 -4.1605483 4.1605483
16 1 -2.08027415 -2.08027415 4.1605483
17 1 -2.08027415 0.0 -6.24082245
18 1 -4.1605483 0.0 -4.1605483
19 1 -4.1605483 2.08027415 -2.08027415
20 1 -2.08027415 0.0 -2.08027415
21 1 -2.08027415 2.08027415 -4.1605483
22 1 -4.1605483 0.0 0.0
23 1 -4.1605483 2.08027415 2.08027415
24 1 -2.08027415 0.0 2.08027415
25 1 -2.08027415 2.08027415 0.0
26 1 -4.1605483 0.0 4.1605483
27 1 -2.08027415 0.0 6.24082245
28 1 -2.08027415 2.08027415 4.1605483
29 1 -4.1605483 4.1605483 -4.1605483
30 1 -2.08027415 4.1605483 -2.08027415
31 1 -4.1605483 4.1605483 0.0
32 1 -2.08027415 4.1605483 2.08027415
33 1 -2.08027415 6.24082245 0.0
34 1 -4.1605483 4.1605483 4.1605483
35 1 0.0 -6.24082245 -2.08027415
36 1 0.0 -8.3210966 0.0
37 1 0.0 -6.24082245 2.08027415
38 1 2.08027415 -6.24082245 0.0
39 1 0.0 -2.08027415 -6.24082245
40 1 0.0 -4.1605483 -4.1605483
41 1 0.0 -2.08027415 -2.08027415
42 1 2.08027415 -4.1605483 -2.08027415
43 1 2.08027415 -2.08027415 -4.1605483
44 1 0.0 -4.1605483 0.0
45 1 0.0 -2.08027415 2.08027415
46 1 2.08027415 -4.1605483 2.08027415
47 1 2.08027415 -2.08027415 0.0
48 1 0.0 -4.1605483 4.1605483
49 1 0.0 -2.08027415 6.24082245
50 1 2.08027415 -2.08027415 4.1605483
51 1 0.0 0.0 -8.3210966
52 1 0.0 2.08027415 -6.24082245
53 1 2.08027415 0.0 -6.24082245
54 1 0.0 0.0 -4.1605483
55 1 0.0 2.08027415 -2.08027415
56 1 2.08027415 0.0 -2.08027415
57 1 2.08027415 2.08027415 -4.1605483
58 1 0.0 0.0 0.0
59 1 0.0 2.08027415 2.08027415
60 1 2.08027415 0.0 2.08027415
61 1 2.08027415 2.08027415 0.0
62 1 0.0 0.0 4.1605483
63 1 0.0 2.08027415 6.24082245
64 1 2.08027415 0.0 6.24082245
65 1 2.08027415 2.08027415 4.1605483
66 1 0.0 0.0 8.3210966
67 1 0.0 4.1605483 -4.1605483
68 1 0.0 6.24082245 -2.08027415
69 1 2.08027415 4.1605483 -2.08027415
70 1 0.0 4.1605483 0.0
71 1 0.0 6.24082245 2.08027415
72 1 2.08027415 4.1605483 2.08027415
73 1 2.08027415 6.24082245 0.0
74 1 0.0 4.1605483 4.1605483
75 1 0.0 8.3210966 0.0
76 1 4.1605483 -4.1605483 -4.1605483
77 1 4.1605483 -2.08027415 -2.08027415
78 1 4.1605483 -4.1605483 0.0
79 1 4.1605483 -2.08027415 2.08027415
80 1 6.24082245 -2.08027415 0.0
81 1 4.1605483 -4.1605483 4.1605483
82 1 4.1605483 0.0 -4.1605483
83 1 4.1605483 2.08027415 -2.08027415
84 1 6.24082245 0.0 -2.08027415
85 1 4.1605483 0.0 0.0
86 1 4.1605483 2.08027415 2.08027415
87 1 6.24082245 0.0 2.08027415
88 1 6.24082245 2.08027415 0.0
89 1 4.1605483 0.0 4.1605483
90 1 4.1605483 4.1605483 -4.1605483
91 1 4.1605483 4.1605483 0.0
92 1 4.1605483 4.1605483 4.1605483
93 1 8.3210966 0.0 0.0
