# Cluster_Combination Program by NingWang
 1667 atoms
 1 atom types
 -100 100 xlo xhi
 -100 100 ylo yhi
 -100 100 zlo zhi

 Atoms  # atomic

1 1 -24.9632898 -18.72246735 -14.56191905
2 1 -22.88301565 -20.8027415 -14.56191905
3 1 -22.88301565 -18.72246735 -16.6421932
4 1 -22.88301565 -20.8027415 -10.40137075
5 1 -22.88301565 -18.72246735 -12.4816449
6 1 -22.88301565 -18.72246735 -8.3210966
7 1 -24.9632898 -14.56191905 -18.72246735
8 1 -22.88301565 -16.6421932 -18.72246735
9 1 -22.88301565 -14.56191905 -20.8027415
10 1 -24.9632898 -16.6421932 -16.6421932
11 1 -24.9632898 -14.56191905 -14.56191905
12 1 -22.88301565 -16.6421932 -14.56191905
13 1 -22.88301565 -14.56191905 -16.6421932
14 1 -24.9632898 -16.6421932 -12.4816449
15 1 -24.9632898 -14.56191905 -10.40137075
16 1 -22.88301565 -16.6421932 -10.40137075
17 1 -22.88301565 -14.56191905 -12.4816449
18 1 -22.88301565 -14.56191905 -8.3210966
19 1 -22.88301565 -12.4816449 -18.72246735
20 1 -22.88301565 -10.40137075 -20.8027415
21 1 -24.9632898 -12.4816449 -16.6421932
22 1 -24.9632898 -10.40137075 -14.56191905
23 1 -22.88301565 -12.4816449 -14.56191905
24 1 -22.88301565 -10.40137075 -16.6421932
25 1 -24.9632898 -12.4816449 -12.4816449
26 1 -22.88301565 -12.4816449 -10.40137075
27 1 -22.88301565 -10.40137075 -12.4816449
28 1 -22.88301565 -12.4816449 -6.24082245
29 1 -22.88301565 -10.40137075 -8.3210966
30 1 -22.88301565 -8.3210966 -18.72246735
31 1 -22.88301565 -8.3210966 -14.56191905
32 1 -22.88301565 -8.3210966 -10.40137075
33 1 -22.88301565 -6.24082245 -12.4816449
34 1 -20.8027415 -22.88301565 -14.56191905
35 1 -18.72246735 -24.9632898 -14.56191905
36 1 -18.72246735 -22.88301565 -16.6421932
37 1 -20.8027415 -22.88301565 -10.40137075
38 1 -18.72246735 -22.88301565 -12.4816449
39 1 -18.72246735 -22.88301565 -8.3210966
40 1 -20.8027415 -20.8027415 -20.8027415
41 1 -20.8027415 -18.72246735 -18.72246735
42 1 -18.72246735 -20.8027415 -18.72246735
43 1 -18.72246735 -18.72246735 -20.8027415
44 1 -20.8027415 -20.8027415 -16.6421932
45 1 -20.8027415 -18.72246735 -14.56191905
46 1 -18.72246735 -20.8027415 -14.56191905
47 1 -18.72246735 -18.72246735 -16.6421932
48 1 -20.8027415 -20.8027415 -12.4816449
49 1 -20.8027415 -18.72246735 -10.40137075
50 1 -18.72246735 -20.8027415 -10.40137075
51 1 -18.72246735 -18.72246735 -12.4816449
52 1 -20.8027415 -20.8027415 -8.3210966
53 1 -20.8027415 -18.72246735 -6.24082245
54 1 -18.72246735 -20.8027415 -6.24082245
55 1 -18.72246735 -18.72246735 -8.3210966
56 1 -18.72246735 -18.72246735 -4.1605483
57 1 -20.8027415 -14.56191905 -22.88301565
58 1 -18.72246735 -16.6421932 -22.88301565
59 1 -18.72246735 -14.56191905 -24.9632898
60 1 -20.8027415 -16.6421932 -20.8027415
61 1 -20.8027415 -14.56191905 -18.72246735
62 1 -18.72246735 -16.6421932 -18.72246735
63 1 -18.72246735 -14.56191905 -20.8027415
64 1 -20.8027415 -16.6421932 -16.6421932
65 1 -20.8027415 -14.56191905 -14.56191905
66 1 -18.72246735 -16.6421932 -14.56191905
67 1 -18.72246735 -14.56191905 -16.6421932
68 1 -20.8027415 -16.6421932 -12.4816449
69 1 -20.8027415 -14.56191905 -10.40137075
70 1 -18.72246735 -16.6421932 -10.40137075
71 1 -18.72246735 -14.56191905 -12.4816449
72 1 -20.8027415 -16.6421932 -8.3210966
73 1 -20.8027415 -14.56191905 -6.24082245
74 1 -18.72246735 -16.6421932 -6.24082245
75 1 -18.72246735 -14.56191905 -8.3210966
76 1 -18.72246735 -14.56191905 -4.1605483
77 1 -20.8027415 -10.40137075 -22.88301565
78 1 -18.72246735 -12.4816449 -22.88301565
79 1 -20.8027415 -12.4816449 -20.8027415
80 1 -20.8027415 -10.40137075 -18.72246735
81 1 -18.72246735 -12.4816449 -18.72246735
82 1 -18.72246735 -10.40137075 -20.8027415
83 1 -20.8027415 -12.4816449 -16.6421932
84 1 -20.8027415 -10.40137075 -14.56191905
85 1 -18.72246735 -12.4816449 -14.56191905
86 1 -18.72246735 -10.40137075 -16.6421932
87 1 -20.8027415 -12.4816449 -12.4816449
88 1 -20.8027415 -10.40137075 -10.40137075
89 1 -18.72246735 -12.4816449 -10.40137075
90 1 -18.72246735 -10.40137075 -12.4816449
91 1 -20.8027415 -12.4816449 -8.3210966
92 1 -20.8027415 -10.40137075 -6.24082245
93 1 -18.72246735 -12.4816449 -6.24082245
94 1 -18.72246735 -10.40137075 -8.3210966
95 1 -20.8027415 -12.4816449 -4.1605483
96 1 -18.72246735 -12.4816449 -2.08027415
97 1 -18.72246735 -10.40137075 -4.1605483
98 1 -18.72246735 -8.3210966 -22.88301565
99 1 -20.8027415 -8.3210966 -20.8027415
100 1 -20.8027415 -6.24082245 -18.72246735
101 1 -18.72246735 -8.3210966 -18.72246735
102 1 -18.72246735 -6.24082245 -20.8027415
103 1 -20.8027415 -8.3210966 -16.6421932
104 1 -20.8027415 -6.24082245 -14.56191905
105 1 -18.72246735 -8.3210966 -14.56191905
106 1 -18.72246735 -6.24082245 -16.6421932
107 1 -20.8027415 -8.3210966 -12.4816449
108 1 -20.8027415 -6.24082245 -10.40137075
109 1 -18.72246735 -8.3210966 -10.40137075
110 1 -18.72246735 -6.24082245 -12.4816449
111 1 -20.8027415 -8.3210966 -8.3210966
112 1 -20.8027415 -6.24082245 -6.24082245
113 1 -18.72246735 -8.3210966 -6.24082245
114 1 -18.72246735 -6.24082245 -8.3210966
115 1 -18.72246735 -8.3210966 -2.08027415
116 1 -18.72246735 -6.24082245 -4.1605483
117 1 -18.72246735 -4.1605483 -18.72246735
118 1 -18.72246735 -4.1605483 -14.56191905
119 1 -20.8027415 -4.1605483 -12.4816449
120 1 -18.72246735 -4.1605483 -10.40137075
121 1 -18.72246735 -2.08027415 -12.4816449
122 1 -18.72246735 -4.1605483 -6.24082245
123 1 -18.72246735 -2.08027415 -8.3210966
124 1 -16.6421932 -22.88301565 -18.72246735
125 1 -14.56191905 -24.9632898 -18.72246735
126 1 -14.56191905 -22.88301565 -20.8027415
127 1 -16.6421932 -24.9632898 -16.6421932
128 1 -16.6421932 -22.88301565 -14.56191905
129 1 -14.56191905 -24.9632898 -14.56191905
130 1 -14.56191905 -22.88301565 -16.6421932
131 1 -16.6421932 -24.9632898 -12.4816449
132 1 -16.6421932 -22.88301565 -10.40137075
133 1 -14.56191905 -24.9632898 -10.40137075
134 1 -14.56191905 -22.88301565 -12.4816449
135 1 -14.56191905 -22.88301565 -8.3210966
136 1 -16.6421932 -18.72246735 -22.88301565
137 1 -14.56191905 -20.8027415 -22.88301565
138 1 -14.56191905 -18.72246735 -24.9632898
139 1 -16.6421932 -20.8027415 -20.8027415
140 1 -16.6421932 -18.72246735 -18.72246735
141 1 -14.56191905 -20.8027415 -18.72246735
142 1 -14.56191905 -18.72246735 -20.8027415
143 1 -16.6421932 -20.8027415 -16.6421932
144 1 -16.6421932 -18.72246735 -14.56191905
145 1 -14.56191905 -20.8027415 -14.56191905
146 1 -14.56191905 -18.72246735 -16.6421932
147 1 -16.6421932 -20.8027415 -12.4816449
148 1 -16.6421932 -18.72246735 -10.40137075
149 1 -14.56191905 -20.8027415 -10.40137075
150 1 -14.56191905 -18.72246735 -12.4816449
151 1 -16.6421932 -20.8027415 -8.3210966
152 1 -16.6421932 -18.72246735 -6.24082245
153 1 -14.56191905 -20.8027415 -6.24082245
154 1 -14.56191905 -18.72246735 -8.3210966
155 1 -14.56191905 -18.72246735 -4.1605483
156 1 -16.6421932 -16.6421932 -24.9632898
157 1 -16.6421932 -14.56191905 -22.88301565
158 1 -14.56191905 -16.6421932 -22.88301565
159 1 -14.56191905 -14.56191905 -24.9632898
160 1 -16.6421932 -16.6421932 -20.8027415
161 1 -16.6421932 -14.56191905 -18.72246735
162 1 -14.56191905 -16.6421932 -18.72246735
163 1 -14.56191905 -14.56191905 -20.8027415
164 1 -16.6421932 -16.6421932 -16.6421932
165 1 -16.6421932 -14.56191905 -14.56191905
166 1 -14.56191905 -16.6421932 -14.56191905
167 1 -14.56191905 -14.56191905 -16.6421932
168 1 -16.6421932 -16.6421932 -12.4816449
169 1 -16.6421932 -14.56191905 -10.40137075
170 1 -14.56191905 -16.6421932 -10.40137075
171 1 -14.56191905 -14.56191905 -12.4816449
172 1 -16.6421932 -16.6421932 -8.3210966
173 1 -16.6421932 -14.56191905 -6.24082245
174 1 -14.56191905 -16.6421932 -6.24082245
175 1 -14.56191905 -14.56191905 -8.3210966
176 1 -16.6421932 -16.6421932 -4.1605483
177 1 -16.6421932 -14.56191905 -2.08027415
178 1 -14.56191905 -16.6421932 -2.08027415
179 1 -14.56191905 -14.56191905 -4.1605483
180 1 -14.56191905 -14.56191905 0.0
181 1 -16.6421932 -12.4816449 -24.9632898
182 1 -16.6421932 -10.40137075 -22.88301565
183 1 -14.56191905 -12.4816449 -22.88301565
184 1 -14.56191905 -10.40137075 -24.9632898
185 1 -16.6421932 -12.4816449 -20.8027415
186 1 -16.6421932 -10.40137075 -18.72246735
187 1 -14.56191905 -12.4816449 -18.72246735
188 1 -14.56191905 -10.40137075 -20.8027415
189 1 -16.6421932 -12.4816449 -16.6421932
190 1 -16.6421932 -10.40137075 -14.56191905
191 1 -14.56191905 -12.4816449 -14.56191905
192 1 -14.56191905 -10.40137075 -16.6421932
193 1 -16.6421932 -12.4816449 -12.4816449
194 1 -16.6421932 -10.40137075 -10.40137075
195 1 -14.56191905 -12.4816449 -10.40137075
196 1 -14.56191905 -10.40137075 -12.4816449
197 1 -16.6421932 -12.4816449 -8.3210966
198 1 -16.6421932 -10.40137075 -6.24082245
199 1 -14.56191905 -12.4816449 -6.24082245
200 1 -14.56191905 -10.40137075 -8.3210966
201 1 -16.6421932 -12.4816449 -4.1605483
202 1 -16.6421932 -10.40137075 -2.08027415
203 1 -14.56191905 -12.4816449 -2.08027415
204 1 -14.56191905 -10.40137075 -4.1605483
205 1 -14.56191905 -10.40137075 0.0
206 1 -14.56191905 -8.3210966 -22.88301565
207 1 -16.6421932 -8.3210966 -20.8027415
208 1 -16.6421932 -6.24082245 -18.72246735
209 1 -14.56191905 -8.3210966 -18.72246735
210 1 -14.56191905 -6.24082245 -20.8027415
211 1 -16.6421932 -8.3210966 -16.6421932
212 1 -16.6421932 -6.24082245 -14.56191905
213 1 -14.56191905 -8.3210966 -14.56191905
214 1 -14.56191905 -6.24082245 -16.6421932
215 1 -16.6421932 -8.3210966 -12.4816449
216 1 -16.6421932 -6.24082245 -10.40137075
217 1 -14.56191905 -8.3210966 -10.40137075
218 1 -14.56191905 -6.24082245 -12.4816449
219 1 -16.6421932 -8.3210966 -8.3210966
220 1 -16.6421932 -6.24082245 -6.24082245
221 1 -14.56191905 -8.3210966 -6.24082245
222 1 -14.56191905 -6.24082245 -8.3210966
223 1 -16.6421932 -8.3210966 -4.1605483
224 1 -16.6421932 -6.24082245 -2.08027415
225 1 -14.56191905 -8.3210966 -2.08027415
226 1 -14.56191905 -6.24082245 -4.1605483
227 1 -16.6421932 -8.3210966 0.0
228 1 -14.56191905 -8.3210966 2.08027415
229 1 -14.56191905 -6.24082245 0.0
230 1 -14.56191905 -4.1605483 -18.72246735
231 1 -16.6421932 -4.1605483 -16.6421932
232 1 -16.6421932 -2.08027415 -14.56191905
233 1 -14.56191905 -4.1605483 -14.56191905
234 1 -14.56191905 -2.08027415 -16.6421932
235 1 -16.6421932 -4.1605483 -12.4816449
236 1 -16.6421932 -2.08027415 -10.40137075
237 1 -14.56191905 -4.1605483 -10.40137075
238 1 -14.56191905 -2.08027415 -12.4816449
239 1 -16.6421932 -4.1605483 -8.3210966
240 1 -16.6421932 -2.08027415 -6.24082245
241 1 -14.56191905 -4.1605483 -6.24082245
242 1 -14.56191905 -2.08027415 -8.3210966
243 1 -16.6421932 -4.1605483 -4.1605483
244 1 -16.6421932 -2.08027415 -2.08027415
245 1 -14.56191905 -4.1605483 -2.08027415
246 1 -14.56191905 -2.08027415 -4.1605483
247 1 -14.56191905 -4.1605483 2.08027415
248 1 -14.56191905 -2.08027415 0.0
249 1 -14.56191905 0.0 -14.56191905
250 1 -14.56191905 0.0 -10.40137075
251 1 -16.6421932 0.0 -8.3210966
252 1 -14.56191905 0.0 -6.24082245
253 1 -14.56191905 2.08027415 -8.3210966
254 1 -14.56191905 0.0 -2.08027415
255 1 -14.56191905 2.08027415 -4.1605483
256 1 -12.4816449 -22.88301565 -18.72246735
257 1 -10.40137075 -22.88301565 -20.8027415
258 1 -12.4816449 -24.9632898 -16.6421932
259 1 -12.4816449 -22.88301565 -14.56191905
260 1 -10.40137075 -24.9632898 -14.56191905
261 1 -10.40137075 -22.88301565 -16.6421932
262 1 -12.4816449 -24.9632898 -12.4816449
263 1 -12.4816449 -22.88301565 -10.40137075
264 1 -10.40137075 -22.88301565 -12.4816449
265 1 -12.4816449 -22.88301565 -6.24082245
266 1 -10.40137075 -22.88301565 -8.3210966
267 1 -12.4816449 -18.72246735 -22.88301565
268 1 -10.40137075 -20.8027415 -22.88301565
269 1 -12.4816449 -20.8027415 -20.8027415
270 1 -12.4816449 -18.72246735 -18.72246735
271 1 -10.40137075 -20.8027415 -18.72246735
272 1 -10.40137075 -18.72246735 -20.8027415
273 1 -12.4816449 -20.8027415 -16.6421932
274 1 -12.4816449 -18.72246735 -14.56191905
275 1 -10.40137075 -20.8027415 -14.56191905
276 1 -10.40137075 -18.72246735 -16.6421932
277 1 -12.4816449 -20.8027415 -12.4816449
278 1 -12.4816449 -18.72246735 -10.40137075
279 1 -10.40137075 -20.8027415 -10.40137075
280 1 -10.40137075 -18.72246735 -12.4816449
281 1 -12.4816449 -20.8027415 -8.3210966
282 1 -12.4816449 -18.72246735 -6.24082245
283 1 -10.40137075 -20.8027415 -6.24082245
284 1 -10.40137075 -18.72246735 -8.3210966
285 1 -12.4816449 -20.8027415 -4.1605483
286 1 -12.4816449 -18.72246735 -2.08027415
287 1 -10.40137075 -18.72246735 -4.1605483
288 1 -12.4816449 -16.6421932 -24.9632898
289 1 -12.4816449 -14.56191905 -22.88301565
290 1 -10.40137075 -16.6421932 -22.88301565
291 1 -10.40137075 -14.56191905 -24.9632898
292 1 -12.4816449 -16.6421932 -20.8027415
293 1 -12.4816449 -14.56191905 -18.72246735
294 1 -10.40137075 -16.6421932 -18.72246735
295 1 -10.40137075 -14.56191905 -20.8027415
296 1 -12.4816449 -16.6421932 -16.6421932
297 1 -12.4816449 -14.56191905 -14.56191905
298 1 -10.40137075 -16.6421932 -14.56191905
299 1 -10.40137075 -14.56191905 -16.6421932
300 1 -12.4816449 -16.6421932 -12.4816449
301 1 -12.4816449 -14.56191905 -10.40137075
302 1 -10.40137075 -16.6421932 -10.40137075
303 1 -10.40137075 -14.56191905 -12.4816449
304 1 -12.4816449 -16.6421932 -8.3210966
305 1 -12.4816449 -14.56191905 -6.24082245
306 1 -10.40137075 -16.6421932 -6.24082245
307 1 -10.40137075 -14.56191905 -8.3210966
308 1 -12.4816449 -16.6421932 -4.1605483
309 1 -12.4816449 -14.56191905 -2.08027415
310 1 -10.40137075 -16.6421932 -2.08027415
311 1 -10.40137075 -14.56191905 -4.1605483
312 1 -10.40137075 -14.56191905 0.0
313 1 -12.4816449 -12.4816449 -24.9632898
314 1 -12.4816449 -10.40137075 -22.88301565
315 1 -10.40137075 -12.4816449 -22.88301565
316 1 -12.4816449 -12.4816449 -20.8027415
317 1 -12.4816449 -10.40137075 -18.72246735
318 1 -10.40137075 -12.4816449 -18.72246735
319 1 -10.40137075 -10.40137075 -20.8027415
320 1 -12.4816449 -12.4816449 -16.6421932
321 1 -12.4816449 -10.40137075 -14.56191905
322 1 -10.40137075 -12.4816449 -14.56191905
323 1 -10.40137075 -10.40137075 -16.6421932
324 1 -12.4816449 -12.4816449 -12.4816449
325 1 -12.4816449 -10.40137075 -10.40137075
326 1 -10.40137075 -12.4816449 -10.40137075
327 1 -10.40137075 -10.40137075 -12.4816449
328 1 -12.4816449 -12.4816449 -8.3210966
329 1 -12.4816449 -10.40137075 -6.24082245
330 1 -10.40137075 -12.4816449 -6.24082245
331 1 -10.40137075 -10.40137075 -8.3210966
332 1 -12.4816449 -12.4816449 -4.1605483
333 1 -12.4816449 -10.40137075 -2.08027415
334 1 -10.40137075 -12.4816449 -2.08027415
335 1 -10.40137075 -10.40137075 -4.1605483
336 1 -12.4816449 -12.4816449 0.0
337 1 -12.4816449 -10.40137075 2.08027415
338 1 -10.40137075 -12.4816449 2.08027415
339 1 -10.40137075 -10.40137075 0.0
340 1 -10.40137075 -10.40137075 4.1605483
341 1 -12.4816449 -6.24082245 -22.88301565
342 1 -10.40137075 -8.3210966 -22.88301565
343 1 -12.4816449 -8.3210966 -20.8027415
344 1 -12.4816449 -6.24082245 -18.72246735
345 1 -10.40137075 -8.3210966 -18.72246735
346 1 -10.40137075 -6.24082245 -20.8027415
347 1 -12.4816449 -8.3210966 -16.6421932
348 1 -12.4816449 -6.24082245 -14.56191905
349 1 -10.40137075 -8.3210966 -14.56191905
350 1 -10.40137075 -6.24082245 -16.6421932
351 1 -12.4816449 -8.3210966 -12.4816449
352 1 -12.4816449 -6.24082245 -10.40137075
353 1 -10.40137075 -8.3210966 -10.40137075
354 1 -10.40137075 -6.24082245 -12.4816449
355 1 -12.4816449 -8.3210966 -8.3210966
356 1 -12.4816449 -6.24082245 -6.24082245
357 1 -10.40137075 -8.3210966 -6.24082245
358 1 -10.40137075 -6.24082245 -8.3210966
359 1 -12.4816449 -8.3210966 -4.1605483
360 1 -12.4816449 -6.24082245 -2.08027415
361 1 -10.40137075 -8.3210966 -2.08027415
362 1 -10.40137075 -6.24082245 -4.1605483
363 1 -12.4816449 -8.3210966 0.0
364 1 -12.4816449 -6.24082245 2.08027415
365 1 -10.40137075 -8.3210966 2.08027415
366 1 -10.40137075 -6.24082245 0.0
367 1 -10.40137075 -6.24082245 4.1605483
368 1 -12.4816449 -4.1605483 -20.8027415
369 1 -12.4816449 -2.08027415 -18.72246735
370 1 -10.40137075 -4.1605483 -18.72246735
371 1 -12.4816449 -4.1605483 -16.6421932
372 1 -12.4816449 -2.08027415 -14.56191905
373 1 -10.40137075 -4.1605483 -14.56191905
374 1 -10.40137075 -2.08027415 -16.6421932
375 1 -12.4816449 -4.1605483 -12.4816449
376 1 -12.4816449 -2.08027415 -10.40137075
377 1 -10.40137075 -4.1605483 -10.40137075
378 1 -10.40137075 -2.08027415 -12.4816449
379 1 -12.4816449 -4.1605483 -8.3210966
380 1 -12.4816449 -2.08027415 -6.24082245
381 1 -10.40137075 -4.1605483 -6.24082245
382 1 -10.40137075 -2.08027415 -8.3210966
383 1 -12.4816449 -4.1605483 -4.1605483
384 1 -12.4816449 -2.08027415 -2.08027415
385 1 -10.40137075 -4.1605483 -2.08027415
386 1 -10.40137075 -2.08027415 -4.1605483
387 1 -12.4816449 -4.1605483 0.0
388 1 -12.4816449 -2.08027415 2.08027415
389 1 -10.40137075 -4.1605483 2.08027415
390 1 -10.40137075 -2.08027415 0.0
391 1 -12.4816449 -4.1605483 4.1605483
392 1 -10.40137075 -4.1605483 6.24082245
393 1 -10.40137075 -2.08027415 4.1605483
394 1 -10.40137075 0.0 -14.56191905
395 1 -12.4816449 0.0 -12.4816449
396 1 -12.4816449 2.08027415 -10.40137075
397 1 -10.40137075 0.0 -10.40137075
398 1 -10.40137075 2.08027415 -12.4816449
399 1 -12.4816449 0.0 -8.3210966
400 1 -12.4816449 2.08027415 -6.24082245
401 1 -10.40137075 0.0 -6.24082245
402 1 -10.40137075 2.08027415 -8.3210966
403 1 -12.4816449 0.0 -4.1605483
404 1 -12.4816449 2.08027415 -2.08027415
405 1 -10.40137075 0.0 -2.08027415
406 1 -10.40137075 2.08027415 -4.1605483
407 1 -12.4816449 0.0 0.0
408 1 -12.4816449 2.08027415 2.08027415
409 1 -10.40137075 0.0 2.08027415
410 1 -10.40137075 2.08027415 0.0
411 1 -10.40137075 0.0 6.24082245
412 1 -10.40137075 2.08027415 4.1605483
413 1 -10.40137075 4.1605483 -10.40137075
414 1 -10.40137075 4.1605483 -6.24082245
415 1 -12.4816449 4.1605483 -4.1605483
416 1 -10.40137075 4.1605483 -2.08027415
417 1 -10.40137075 6.24082245 -4.1605483
418 1 -10.40137075 4.1605483 2.08027415
419 1 -10.40137075 6.24082245 0.0
420 1 -8.3210966 -22.88301565 -18.72246735
421 1 -8.3210966 -22.88301565 -14.56191905
422 1 -8.3210966 -22.88301565 -10.40137075
423 1 -6.24082245 -22.88301565 -12.4816449
424 1 -8.3210966 -18.72246735 -22.88301565
425 1 -8.3210966 -20.8027415 -20.8027415
426 1 -8.3210966 -18.72246735 -18.72246735
427 1 -6.24082245 -20.8027415 -18.72246735
428 1 -6.24082245 -18.72246735 -20.8027415
429 1 -8.3210966 -20.8027415 -16.6421932
430 1 -8.3210966 -18.72246735 -14.56191905
431 1 -6.24082245 -20.8027415 -14.56191905
432 1 -6.24082245 -18.72246735 -16.6421932
433 1 -8.3210966 -20.8027415 -12.4816449
434 1 -8.3210966 -18.72246735 -10.40137075
435 1 -6.24082245 -20.8027415 -10.40137075
436 1 -6.24082245 -18.72246735 -12.4816449
437 1 -8.3210966 -20.8027415 -8.3210966
438 1 -8.3210966 -18.72246735 -6.24082245
439 1 -6.24082245 -20.8027415 -6.24082245
440 1 -6.24082245 -18.72246735 -8.3210966
441 1 -8.3210966 -18.72246735 -2.08027415
442 1 -6.24082245 -18.72246735 -4.1605483
443 1 -8.3210966 -14.56191905 -22.88301565
444 1 -8.3210966 -16.6421932 -20.8027415
445 1 -8.3210966 -14.56191905 -18.72246735
446 1 -6.24082245 -16.6421932 -18.72246735
447 1 -6.24082245 -14.56191905 -20.8027415
448 1 -8.3210966 -16.6421932 -16.6421932
449 1 -8.3210966 -14.56191905 -14.56191905
450 1 -6.24082245 -16.6421932 -14.56191905
451 1 -6.24082245 -14.56191905 -16.6421932
452 1 -8.3210966 -16.6421932 -12.4816449
453 1 -8.3210966 -14.56191905 -10.40137075
454 1 -6.24082245 -16.6421932 -10.40137075
455 1 -6.24082245 -14.56191905 -12.4816449
456 1 -8.3210966 -16.6421932 -8.3210966
457 1 -8.3210966 -14.56191905 -6.24082245
458 1 -6.24082245 -16.6421932 -6.24082245
459 1 -6.24082245 -14.56191905 -8.3210966
460 1 -8.3210966 -16.6421932 -4.1605483
461 1 -8.3210966 -14.56191905 -2.08027415
462 1 -6.24082245 -16.6421932 -2.08027415
463 1 -6.24082245 -14.56191905 -4.1605483
464 1 -8.3210966 -16.6421932 0.0
465 1 -8.3210966 -14.56191905 2.08027415
466 1 -6.24082245 -14.56191905 0.0
467 1 -8.3210966 -10.40137075 -22.88301565
468 1 -6.24082245 -12.4816449 -22.88301565
469 1 -8.3210966 -12.4816449 -20.8027415
470 1 -8.3210966 -10.40137075 -18.72246735
471 1 -6.24082245 -12.4816449 -18.72246735
472 1 -6.24082245 -10.40137075 -20.8027415
473 1 -8.3210966 -12.4816449 -16.6421932
474 1 -8.3210966 -10.40137075 -14.56191905
475 1 -6.24082245 -12.4816449 -14.56191905
476 1 -6.24082245 -10.40137075 -16.6421932
477 1 -8.3210966 -12.4816449 -12.4816449
478 1 -8.3210966 -10.40137075 -10.40137075
479 1 -6.24082245 -12.4816449 -10.40137075
480 1 -6.24082245 -10.40137075 -12.4816449
481 1 -8.3210966 -12.4816449 -8.3210966
482 1 -8.3210966 -10.40137075 -6.24082245
483 1 -6.24082245 -12.4816449 -6.24082245
484 1 -6.24082245 -10.40137075 -8.3210966
485 1 -8.3210966 -12.4816449 -4.1605483
486 1 -8.3210966 -10.40137075 -2.08027415
487 1 -6.24082245 -12.4816449 -2.08027415
488 1 -6.24082245 -10.40137075 -4.1605483
489 1 -8.3210966 -12.4816449 0.0
490 1 -8.3210966 -10.40137075 2.08027415
491 1 -6.24082245 -12.4816449 2.08027415
492 1 -6.24082245 -10.40137075 0.0
493 1 -6.24082245 -10.40137075 4.1605483
494 1 -8.3210966 -8.3210966 -20.8027415
495 1 -8.3210966 -6.24082245 -18.72246735
496 1 -6.24082245 -8.3210966 -18.72246735
497 1 -6.24082245 -6.24082245 -20.8027415
498 1 -8.3210966 -8.3210966 -16.6421932
499 1 -8.3210966 -6.24082245 -14.56191905
500 1 -6.24082245 -8.3210966 -14.56191905
501 1 -6.24082245 -6.24082245 -16.6421932
502 1 -8.3210966 -8.3210966 -12.4816449
503 1 -8.3210966 -6.24082245 -10.40137075
504 1 -6.24082245 -8.3210966 -10.40137075
505 1 -6.24082245 -6.24082245 -12.4816449
506 1 -8.3210966 -8.3210966 -8.3210966
507 1 -8.3210966 -6.24082245 -6.24082245
508 1 -6.24082245 -8.3210966 -6.24082245
509 1 -6.24082245 -6.24082245 -8.3210966
510 1 -8.3210966 -8.3210966 -4.1605483
511 1 -8.3210966 -6.24082245 -2.08027415
512 1 -6.24082245 -8.3210966 -2.08027415
513 1 -6.24082245 -6.24082245 -4.1605483
514 1 -8.3210966 -8.3210966 0.0
515 1 -8.3210966 -6.24082245 2.08027415
516 1 -6.24082245 -8.3210966 2.08027415
517 1 -6.24082245 -6.24082245 0.0
518 1 -8.3210966 -8.3210966 4.1605483
519 1 -8.3210966 -6.24082245 6.24082245
520 1 -6.24082245 -8.3210966 6.24082245
521 1 -6.24082245 -6.24082245 4.1605483
522 1 -6.24082245 -6.24082245 8.3210966
523 1 -8.3210966 -2.08027415 -18.72246735
524 1 -6.24082245 -4.1605483 -18.72246735
525 1 -8.3210966 -4.1605483 -16.6421932
526 1 -8.3210966 -2.08027415 -14.56191905
527 1 -6.24082245 -4.1605483 -14.56191905
528 1 -6.24082245 -2.08027415 -16.6421932
529 1 -8.3210966 -4.1605483 -12.4816449
530 1 -8.3210966 -2.08027415 -10.40137075
531 1 -6.24082245 -4.1605483 -10.40137075
532 1 -6.24082245 -2.08027415 -12.4816449
533 1 -8.3210966 -4.1605483 -8.3210966
534 1 -8.3210966 -2.08027415 -6.24082245
535 1 -6.24082245 -4.1605483 -6.24082245
536 1 -6.24082245 -2.08027415 -8.3210966
537 1 -8.3210966 -4.1605483 -4.1605483
538 1 -8.3210966 -2.08027415 -2.08027415
539 1 -6.24082245 -4.1605483 -2.08027415
540 1 -6.24082245 -2.08027415 -4.1605483
541 1 -8.3210966 -4.1605483 0.0
542 1 -8.3210966 -2.08027415 2.08027415
543 1 -6.24082245 -4.1605483 2.08027415
544 1 -6.24082245 -2.08027415 0.0
545 1 -8.3210966 -4.1605483 4.1605483
546 1 -8.3210966 -2.08027415 6.24082245
547 1 -6.24082245 -4.1605483 6.24082245
548 1 -6.24082245 -2.08027415 4.1605483
549 1 -6.24082245 -2.08027415 8.3210966
550 1 -8.3210966 0.0 -16.6421932
551 1 -8.3210966 2.08027415 -14.56191905
552 1 -6.24082245 0.0 -14.56191905
553 1 -8.3210966 0.0 -12.4816449
554 1 -8.3210966 2.08027415 -10.40137075
555 1 -6.24082245 0.0 -10.40137075
556 1 -6.24082245 2.08027415 -12.4816449
557 1 -8.3210966 0.0 -8.3210966
558 1 -8.3210966 2.08027415 -6.24082245
559 1 -6.24082245 0.0 -6.24082245
560 1 -6.24082245 2.08027415 -8.3210966
561 1 -8.3210966 0.0 -4.1605483
562 1 -8.3210966 2.08027415 -2.08027415
563 1 -6.24082245 0.0 -2.08027415
564 1 -6.24082245 2.08027415 -4.1605483
565 1 -8.3210966 0.0 0.0
566 1 -8.3210966 2.08027415 2.08027415
567 1 -6.24082245 0.0 2.08027415
568 1 -6.24082245 2.08027415 0.0
569 1 -8.3210966 0.0 4.1605483
570 1 -8.3210966 2.08027415 6.24082245
571 1 -6.24082245 0.0 6.24082245
572 1 -6.24082245 2.08027415 4.1605483
573 1 -8.3210966 0.0 8.3210966
574 1 -6.24082245 0.0 10.40137075
575 1 -6.24082245 2.08027415 8.3210966
576 1 -6.24082245 4.1605483 -10.40137075
577 1 -8.3210966 4.1605483 -8.3210966
578 1 -8.3210966 6.24082245 -6.24082245
579 1 -6.24082245 4.1605483 -6.24082245
580 1 -6.24082245 6.24082245 -8.3210966
581 1 -8.3210966 4.1605483 -4.1605483
582 1 -8.3210966 6.24082245 -2.08027415
583 1 -6.24082245 4.1605483 -2.08027415
584 1 -6.24082245 6.24082245 -4.1605483
585 1 -8.3210966 4.1605483 0.0
586 1 -8.3210966 6.24082245 2.08027415
587 1 -6.24082245 4.1605483 2.08027415
588 1 -6.24082245 6.24082245 0.0
589 1 -8.3210966 4.1605483 4.1605483
590 1 -8.3210966 6.24082245 6.24082245
591 1 -6.24082245 4.1605483 6.24082245
592 1 -6.24082245 6.24082245 4.1605483
593 1 -6.24082245 4.1605483 10.40137075
594 1 -6.24082245 6.24082245 8.3210966
595 1 -6.24082245 8.3210966 -6.24082245
596 1 -6.24082245 8.3210966 -2.08027415
597 1 -8.3210966 8.3210966 0.0
598 1 -6.24082245 8.3210966 2.08027415
599 1 -6.24082245 10.40137075 0.0
600 1 -6.24082245 8.3210966 6.24082245
601 1 -6.24082245 10.40137075 4.1605483
602 1 -4.1605483 -18.72246735 -18.72246735
603 1 -4.1605483 -18.72246735 -14.56191905
604 1 -4.1605483 -20.8027415 -12.4816449
605 1 -4.1605483 -18.72246735 -10.40137075
606 1 -2.08027415 -18.72246735 -12.4816449
607 1 -4.1605483 -18.72246735 -6.24082245
608 1 -2.08027415 -18.72246735 -8.3210966
609 1 -4.1605483 -14.56191905 -18.72246735
610 1 -4.1605483 -16.6421932 -16.6421932
611 1 -4.1605483 -14.56191905 -14.56191905
612 1 -2.08027415 -16.6421932 -14.56191905
613 1 -2.08027415 -14.56191905 -16.6421932
614 1 -4.1605483 -16.6421932 -12.4816449
615 1 -4.1605483 -14.56191905 -10.40137075
616 1 -2.08027415 -16.6421932 -10.40137075
617 1 -2.08027415 -14.56191905 -12.4816449
618 1 -4.1605483 -16.6421932 -8.3210966
619 1 -4.1605483 -14.56191905 -6.24082245
620 1 -2.08027415 -16.6421932 -6.24082245
621 1 -2.08027415 -14.56191905 -8.3210966
622 1 -4.1605483 -16.6421932 -4.1605483
623 1 -4.1605483 -14.56191905 -2.08027415
624 1 -2.08027415 -16.6421932 -2.08027415
625 1 -2.08027415 -14.56191905 -4.1605483
626 1 -4.1605483 -14.56191905 2.08027415
627 1 -2.08027415 -14.56191905 0.0
628 1 -4.1605483 -12.4816449 -20.8027415
629 1 -4.1605483 -10.40137075 -18.72246735
630 1 -2.08027415 -12.4816449 -18.72246735
631 1 -4.1605483 -12.4816449 -16.6421932
632 1 -4.1605483 -10.40137075 -14.56191905
633 1 -2.08027415 -12.4816449 -14.56191905
634 1 -2.08027415 -10.40137075 -16.6421932
635 1 -4.1605483 -12.4816449 -12.4816449
636 1 -4.1605483 -10.40137075 -10.40137075
637 1 -2.08027415 -12.4816449 -10.40137075
638 1 -2.08027415 -10.40137075 -12.4816449
639 1 -4.1605483 -12.4816449 -8.3210966
640 1 -4.1605483 -10.40137075 -6.24082245
641 1 -2.08027415 -12.4816449 -6.24082245
642 1 -2.08027415 -10.40137075 -8.3210966
643 1 -4.1605483 -12.4816449 -4.1605483
644 1 -4.1605483 -10.40137075 -2.08027415
645 1 -2.08027415 -12.4816449 -2.08027415
646 1 -2.08027415 -10.40137075 -4.1605483
647 1 -4.1605483 -12.4816449 0.0
648 1 -4.1605483 -10.40137075 2.08027415
649 1 -2.08027415 -12.4816449 2.08027415
650 1 -2.08027415 -10.40137075 0.0
651 1 -4.1605483 -12.4816449 4.1605483
652 1 -4.1605483 -10.40137075 6.24082245
653 1 -2.08027415 -10.40137075 4.1605483
654 1 -4.1605483 -6.24082245 -18.72246735
655 1 -2.08027415 -8.3210966 -18.72246735
656 1 -4.1605483 -8.3210966 -16.6421932
657 1 -4.1605483 -6.24082245 -14.56191905
658 1 -2.08027415 -8.3210966 -14.56191905
659 1 -2.08027415 -6.24082245 -16.6421932
660 1 -4.1605483 -8.3210966 -12.4816449
661 1 -4.1605483 -6.24082245 -10.40137075
662 1 -2.08027415 -8.3210966 -10.40137075
663 1 -2.08027415 -6.24082245 -12.4816449
664 1 -4.1605483 -8.3210966 -8.3210966
665 1 -4.1605483 -6.24082245 -6.24082245
666 1 -2.08027415 -8.3210966 -6.24082245
667 1 -2.08027415 -6.24082245 -8.3210966
668 1 -4.1605483 -8.3210966 -4.1605483
669 1 -4.1605483 -6.24082245 -2.08027415
670 1 -2.08027415 -8.3210966 -2.08027415
671 1 -2.08027415 -6.24082245 -4.1605483
672 1 -4.1605483 -8.3210966 0.0
673 1 -4.1605483 -6.24082245 2.08027415
674 1 -2.08027415 -8.3210966 2.08027415
675 1 -2.08027415 -6.24082245 0.0
676 1 -4.1605483 -8.3210966 4.1605483
677 1 -4.1605483 -6.24082245 6.24082245
678 1 -2.08027415 -8.3210966 6.24082245
679 1 -2.08027415 -6.24082245 4.1605483
680 1 -2.08027415 -6.24082245 8.3210966
681 1 -4.1605483 -4.1605483 -16.6421932
682 1 -4.1605483 -2.08027415 -14.56191905
683 1 -2.08027415 -4.1605483 -14.56191905
684 1 -2.08027415 -2.08027415 -16.6421932
685 1 -4.1605483 -4.1605483 -12.4816449
686 1 -4.1605483 -2.08027415 -10.40137075
687 1 -2.08027415 -4.1605483 -10.40137075
688 1 -2.08027415 -2.08027415 -12.4816449
689 1 -4.1605483 -4.1605483 -8.3210966
690 1 -4.1605483 -2.08027415 -6.24082245
691 1 -2.08027415 -4.1605483 -6.24082245
692 1 -2.08027415 -2.08027415 -8.3210966
693 1 -4.1605483 -4.1605483 -4.1605483
694 1 -4.1605483 -2.08027415 -2.08027415
695 1 -2.08027415 -4.1605483 -2.08027415
696 1 -2.08027415 -2.08027415 -4.1605483
697 1 -4.1605483 -4.1605483 0.0
698 1 -4.1605483 -2.08027415 2.08027415
699 1 -2.08027415 -4.1605483 2.08027415
700 1 -2.08027415 -2.08027415 0.0
701 1 -4.1605483 -4.1605483 4.1605483
702 1 -4.1605483 -2.08027415 6.24082245
703 1 -2.08027415 -4.1605483 6.24082245
704 1 -2.08027415 -2.08027415 4.1605483
705 1 -4.1605483 -4.1605483 8.3210966
706 1 -4.1605483 -2.08027415 10.40137075
707 1 -2.08027415 -4.1605483 10.40137075
708 1 -2.08027415 -2.08027415 8.3210966
709 1 -2.08027415 -2.08027415 12.4816449
710 1 -4.1605483 2.08027415 -14.56191905
711 1 -2.08027415 0.0 -14.56191905
712 1 -4.1605483 0.0 -12.4816449
713 1 -4.1605483 2.08027415 -10.40137075
714 1 -2.08027415 0.0 -10.40137075
715 1 -2.08027415 2.08027415 -12.4816449
716 1 -4.1605483 0.0 -8.3210966
717 1 -4.1605483 2.08027415 -6.24082245
718 1 -2.08027415 0.0 -6.24082245
719 1 -2.08027415 2.08027415 -8.3210966
720 1 -4.1605483 0.0 -4.1605483
721 1 -4.1605483 2.08027415 -2.08027415
722 1 -2.08027415 0.0 -2.08027415
723 1 -2.08027415 2.08027415 -4.1605483
724 1 -4.1605483 0.0 0.0
725 1 -4.1605483 2.08027415 2.08027415