# Cluster_Combination Program by NingWang
 1369 atoms
 1 atom types
 -100 100 xlo xhi
 -100 100 ylo yhi
 -100 100 zlo zhi

 Atoms  # atomic

1 1 -14.56191905 -2.08027415 0.0
2 1 -14.56191905 -2.08027415 4.1605483
3 1 -14.56191905 -2.08027415 8.3210966
4 1 -14.56191905 -2.08027415 12.4816449
5 1 -14.56191905 -2.08027415 16.6421932
6 1 -14.56191905 -2.08027415 20.8027415
7 1 -14.56191905 -2.08027415 24.9632898
8 1 -14.56191905 -2.08027415 29.1238381
9 1 -14.56191905 -2.08027415 33.2843864
10 1 -14.56191905 0.0 2.08027415
11 1 -14.56191905 2.08027415 0.0
12 1 -14.56191905 0.0 6.24082245
13 1 -14.56191905 2.08027415 4.1605483
14 1 -14.56191905 0.0 10.40137075
15 1 -14.56191905 2.08027415 8.3210966
16 1 -14.56191905 0.0 14.56191905
17 1 -14.56191905 2.08027415 12.4816449
18 1 -14.56191905 0.0 18.72246735
19 1 -14.56191905 2.08027415 16.6421932
20 1 -14.56191905 0.0 22.88301565
21 1 -14.56191905 2.08027415 20.8027415
22 1 -14.56191905 0.0 27.04356395
23 1 -14.56191905 2.08027415 24.9632898
24 1 -14.56191905 0.0 31.20411225
25 1 -14.56191905 2.08027415 29.1238381
26 1 -14.56191905 2.08027415 33.2843864
27 1 -10.40137075 -10.40137075 0.0
28 1 -10.40137075 -10.40137075 4.1605483
29 1 -10.40137075 -10.40137075 8.3210966
30 1 -10.40137075 -10.40137075 12.4816449
31 1 -10.40137075 -10.40137075 16.6421932
32 1 -10.40137075 -10.40137075 20.8027415
33 1 -10.40137075 -10.40137075 24.9632898
34 1 -10.40137075 -10.40137075 29.1238381
35 1 -10.40137075 -10.40137075 33.2843864
36 1 -12.4816449 -6.24082245 2.08027415
37 1 -10.40137075 -8.3210966 2.08027415
38 1 -10.40137075 -6.24082245 0.0
39 1 -12.4816449 -6.24082245 6.24082245
40 1 -10.40137075 -8.3210966 6.24082245
41 1 -10.40137075 -6.24082245 4.1605483
42 1 -12.4816449 -6.24082245 10.40137075
43 1 -10.40137075 -8.3210966 10.40137075
44 1 -10.40137075 -6.24082245 8.3210966
45 1 -12.4816449 -6.24082245 14.56191905
46 1 -10.40137075 -8.3210966 14.56191905
47 1 -10.40137075 -6.24082245 12.4816449
48 1 -12.4816449 -6.24082245 18.72246735
49 1 -10.40137075 -8.3210966 18.72246735
50 1 -10.40137075 -6.24082245 16.6421932
51 1 -12.4816449 -6.24082245 22.88301565
52 1 -10.40137075 -8.3210966 22.88301565
53 1 -10.40137075 -6.24082245 20.8027415
54 1 -12.4816449 -6.24082245 27.04356395
55 1 -10.40137075 -8.3210966 27.04356395
56 1 -10.40137075 -6.24082245 24.9632898
57 1 -12.4816449 -6.24082245 31.20411225
58 1 -10.40137075 -8.3210966 31.20411225
59 1 -10.40137075 -6.24082245 29.1238381
60 1 -10.40137075 -6.24082245 33.2843864
61 1 -12.4816449 -4.1605483 0.0
62 1 -12.4816449 -2.08027415 2.08027415
63 1 -10.40137075 -4.1605483 2.08027415
64 1 -10.40137075 -2.08027415 0.0
65 1 -12.4816449 -4.1605483 4.1605483
66 1 -12.4816449 -2.08027415 6.24082245
67 1 -10.40137075 -4.1605483 6.24082245
68 1 -10.40137075 -2.08027415 4.1605483
69 1 -12.4816449 -4.1605483 8.3210966
70 1 -12.4816449 -2.08027415 10.40137075
71 1 -10.40137075 -4.1605483 10.40137075
72 1 -10.40137075 -2.08027415 8.3210966
73 1 -12.4816449 -4.1605483 12.4816449
74 1 -12.4816449 -2.08027415 14.56191905
75 1 -10.40137075 -4.1605483 14.56191905
76 1 -10.40137075 -2.08027415 12.4816449
77 1 -12.4816449 -4.1605483 16.6421932
78 1 -12.4816449 -2.08027415 18.72246735
79 1 -10.40137075 -4.1605483 18.72246735
80 1 -10.40137075 -2.08027415 16.6421932
81 1 -12.4816449 -4.1605483 20.8027415
82 1 -12.4816449 -2.08027415 22.88301565
83 1 -10.40137075 -4.1605483 22.88301565
84 1 -10.40137075 -2.08027415 20.8027415
85 1 -12.4816449 -4.1605483 24.9632898
86 1 -12.4816449 -2.08027415 27.04356395
87 1 -10.40137075 -4.1605483 27.04356395
88 1 -10.40137075 -2.08027415 24.9632898
89 1 -12.4816449 -4.1605483 29.1238381
90 1 -12.4816449 -2.08027415 31.20411225
91 1 -10.40137075 -4.1605483 31.20411225
92 1 -10.40137075 -2.08027415 29.1238381
93 1 -12.4816449 -4.1605483 33.2843864
94 1 -10.40137075 -2.08027415 33.2843864
95 1 -12.4816449 0.0 0.0
96 1 -12.4816449 2.08027415 2.08027415
97 1 -10.40137075 0.0 2.08027415
98 1 -10.40137075 2.08027415 0.0
99 1 -12.4816449 0.0 4.1605483
100 1 -12.4816449 2.08027415 6.24082245
101 1 -10.40137075 0.0 6.24082245
102 1 -10.40137075 2.08027415 4.1605483
103 1 -12.4816449 0.0 8.3210966
104 1 -12.4816449 2.08027415 10.40137075
105 1 -10.40137075 0.0 10.40137075
106 1 -10.40137075 2.08027415 8.3210966
107 1 -12.4816449 0.0 12.4816449
108 1 -12.4816449 2.08027415 14.56191905
109 1 -10.40137075 0.0 14.56191905
110 1 -10.40137075 2.08027415 12.4816449
111 1 -12.4816449 0.0 16.6421932
112 1 -12.4816449 2.08027415 18.72246735
113 1 -10.40137075 0.0 18.72246735
114 1 -10.40137075 2.08027415 16.6421932
115 1 -12.4816449 0.0 20.8027415
116 1 -12.4816449 2.08027415 22.88301565
117 1 -10.40137075 0.0 22.88301565
118 1 -10.40137075 2.08027415 20.8027415
119 1 -12.4816449 0.0 24.9632898
120 1 -12.4816449 2.08027415 27.04356395
121 1 -10.40137075 0.0 27.04356395
122 1 -10.40137075 2.08027415 24.9632898
123 1 -12.4816449 0.0 29.1238381
124 1 -12.4816449 2.08027415 31.20411225
125 1 -10.40137075 0.0 31.20411225
126 1 -10.40137075 2.08027415 29.1238381
127 1 -12.4816449 0.0 33.2843864
128 1 -10.40137075 2.08027415 33.2843864
129 1 -12.4816449 4.1605483 0.0
130 1 -12.4816449 6.24082245 2.08027415
131 1 -10.40137075 4.1605483 2.08027415
132 1 -10.40137075 6.24082245 0.0
133 1 -12.4816449 4.1605483 4.1605483
134 1 -12.4816449 6.24082245 6.24082245
135 1 -10.40137075 4.1605483 6.24082245
136 1 -10.40137075 6.24082245 4.1605483
137 1 -12.4816449 4.1605483 8.3210966
138 1 -12.4816449 6.24082245 10.40137075
139 1 -10.40137075 4.1605483 10.40137075
140 1 -10.40137075 6.24082245 8.3210966
141 1 -12.4816449 4.1605483 12.4816449
142 1 -12.4816449 6.24082245 14.56191905
143 1 -10.40137075 4.1605483 14.56191905
144 1 -10.40137075 6.24082245 12.4816449
145 1 -12.4816449 4.1605483 16.6421932
146 1 -12.4816449 6.24082245 18.72246735
147 1 -10.40137075 4.1605483 18.72246735
148 1 -10.40137075 6.24082245 16.6421932
149 1 -12.4816449 4.1605483 20.8027415
150 1 -12.4816449 6.24082245 22.88301565
151 1 -10.40137075 4.1605483 22.88301565
152 1 -10.40137075 6.24082245 20.8027415
153 1 -12.4816449 4.1605483 24.9632898
154 1 -12.4816449 6.24082245 27.04356395
155 1 -10.40137075 4.1605483 27.04356395
156 1 -10.40137075 6.24082245 24.9632898
157 1 -12.4816449 4.1605483 29.1238381
158 1 -12.4816449 6.24082245 31.20411225
159 1 -10.40137075 4.1605483 31.20411225
160 1 -10.40137075 6.24082245 29.1238381
161 1 -12.4816449 4.1605483 33.2843864
162 1 -10.40137075 6.24082245 33.2843864
163 1 -10.40137075 8.3210966 2.08027415
164 1 -10.40137075 10.40137075 0.0
165 1 -10.40137075 8.3210966 6.24082245
166 1 -10.40137075 10.40137075 4.1605483
167 1 -10.40137075 8.3210966 10.40137075
168 1 -10.40137075 10.40137075 8.3210966
169 1 -10.40137075 8.3210966 14.56191905
170 1 -10.40137075 10.40137075 12.4816449
171 1 -10.40137075 8.3210966 18.72246735
172 1 -10.40137075 10.40137075 16.6421932
173 1 -10.40137075 8.3210966 22.88301565
174 1 -10.40137075 10.40137075 20.8027415
175 1 -10.40137075 8.3210966 27.04356395
176 1 -10.40137075 10.40137075 24.9632898
177 1 -10.40137075 8.3210966 31.20411225
178 1 -10.40137075 10.40137075 29.1238381
179 1 -10.40137075 10.40137075 33.2843864
180 1 -8.3210966 -10.40137075 2.08027415
181 1 -6.24082245 -12.4816449 2.08027415
182 1 -6.24082245 -10.40137075 0.0
183 1 -8.3210966 -10.40137075 6.24082245
184 1 -6.24082245 -12.4816449 6.24082245
185 1 -6.24082245 -10.40137075 4.1605483
186 1 -8.3210966 -10.40137075 10.40137075
187 1 -6.24082245 -12.4816449 10.40137075
188 1 -6.24082245 -10.40137075 8.3210966
189 1 -8.3210966 -10.40137075 14.56191905
190 1 -6.24082245 -12.4816449 14.56191905
191 1 -6.24082245 -10.40137075 12.4816449
192 1 -8.3210966 -10.40137075 18.72246735
193 1 -6.24082245 -12.4816449 18.72246735
194 1 -6.24082245 -10.40137075 16.6421932
195 1 -8.3210966 -10.40137075 22.88301565
196 1 -6.24082245 -12.4816449 22.88301565
197 1 -6.24082245 -10.40137075 20.8027415
198 1 -8.3210966 -10.40137075 27.04356395
199 1 -6.24082245 -12.4816449 27.04356395
200 1 -6.24082245 -10.40137075 24.9632898
201 1 -8.3210966 -10.40137075 31.20411225
202 1 -6.24082245 -12.4816449 31.20411225
203 1 -6.24082245 -10.40137075 29.1238381
204 1 -6.24082245 -10.40137075 33.2843864
205 1 -8.3210966 -8.3210966 0.0
206 1 -8.3210966 -6.24082245 2.08027415
207 1 -6.24082245 -8.3210966 2.08027415
208 1 -6.24082245 -6.24082245 0.0
209 1 -8.3210966 -8.3210966 4.1605483
210 1 -8.3210966 -6.24082245 6.24082245
211 1 -6.24082245 -8.3210966 6.24082245
212 1 -6.24082245 -6.24082245 4.1605483
213 1 -8.3210966 -8.3210966 8.3210966
214 1 -8.3210966 -6.24082245 10.40137075
215 1 -6.24082245 -8.3210966 10.40137075
216 1 -6.24082245 -6.24082245 8.3210966
217 1 -8.3210966 -8.3210966 12.4816449
218 1 -8.3210966 -6.24082245 14.56191905
219 1 -6.24082245 -8.3210966 14.56191905
220 1 -6.24082245 -6.24082245 12.4816449
221 1 -8.3210966 -8.3210966 16.6421932
222 1 -8.3210966 -6.24082245 18.72246735
223 1 -6.24082245 -8.3210966 18.72246735
224 1 -6.24082245 -6.24082245 16.6421932
225 1 -8.3210966 -8.3210966 20.8027415
226 1 -8.3210966 -6.24082245 22.88301565
227 1 -6.24082245 -8.3210966 22.88301565
228 1 -6.24082245 -6.24082245 20.8027415
229 1 -8.3210966 -8.3210966 24.9632898
230 1 -8.3210966 -6.24082245 27.04356395
231 1 -6.24082245 -8.3210966 27.04356395
232 1 -6.24082245 -6.24082245 24.9632898
233 1 -8.3210966 -8.3210966 29.1238381
234 1 -8.3210966 -6.24082245 31.20411225
235 1 -6.24082245 -8.3210966 31.20411225
236 1 -6.24082245 -6.24082245 29.1238381
237 1 -8.3210966 -8.3210966 33.2843864
238 1 -6.24082245 -6.24082245 33.2843864
239 1 -8.3210966 -4.1605483 0.0
240 1 -8.3210966 -2.08027415 2.08027415
241 1 -6.24082245 -4.1605483 2.08027415
242 1 -6.24082245 -2.08027415 0.0
243 1 -8.3210966 -4.1605483 4.1605483
244 1 -8.3210966 -2.08027415 6.24082245
245 1 -6.24082245 -4.1605483 6.24082245
246 1 -6.24082245 -2.08027415 4.1605483
247 1 -8.3210966 -4.1605483 8.3210966
248 1 -8.3210966 -2.08027415 10.40137075
249 1 -6.24082245 -4.1605483 10.40137075
250 1 -6.24082245 -2.08027415 8.3210966
251 1 -8.3210966 -4.1605483 12.4816449
252 1 -8.3210966 -2.08027415 14.56191905
253 1 -6.24082245 -4.1605483 14.56191905
254 1 -6.24082245 -2.08027415 12.4816449
255 1 -8.3210966 -4.1605483 16.6421932
256 1 -8.3210966 -2.08027415 18.72246735
257 1 -6.24082245 -4.1605483 18.72246735
258 1 -6.24082245 -2.08027415 16.6421932
259 1 -8.3210966 -4.1605483 20.8027415
260 1 -8.3210966 -2.08027415 22.88301565
261 1 -6.24082245 -4.1605483 22.88301565
262 1 -6.24082245 -2.08027415 20.8027415
263 1 -8.3210966 -4.1605483 24.9632898
264 1 -8.3210966 -2.08027415 27.04356395
265 1 -6.24082245 -4.1605483 27.04356395
266 1 -6.24082245 -2.08027415 24.9632898
267 1 -8.3210966 -4.1605483 29.1238381
268 1 -8.3210966 -2.08027415 31.20411225
269 1 -6.24082245 -4.1605483 31.20411225
270 1 -6.24082245 -2.08027415 29.1238381
271 1 -8.3210966 -4.1605483 33.2843864
272 1 -6.24082245 -2.08027415 33.2843864
273 1 -8.3210966 0.0 0.0
274 1 -8.3210966 2.08027415 2.08027415
275 1 -6.24082245 0.0 2.08027415
276 1 -6.24082245 2.08027415 0.0
277 1 -8.3210966 0.0 4.1605483
278 1 -8.3210966 2.08027415 6.24082245
279 1 -6.24082245 0.0 6.24082245
280 1 -6.24082245 2.08027415 4.1605483
281 1 -8.3210966 0.0 8.3210966
282 1 -8.3210966 2.08027415 10.40137075
283 1 -6.24082245 0.0 10.40137075
284 1 -6.24082245 2.08027415 8.3210966
285 1 -8.3210966 0.0 12.4816449
286 1 -8.3210966 2.08027415 14.56191905
287 1 -6.24082245 0.0 14.56191905
288 1 -6.24082245 2.08027415 12.4816449
289 1 -8.3210966 0.0 16.6421932
290 1 -8.3210966 2.08027415 18.72246735
291 1 -6.24082245 0.0 18.72246735
292 1 -6.24082245 2.08027415 16.6421932
293 1 -8.3210966 0.0 20.8027415
294 1 -8.3210966 2.08027415 22.88301565
295 1 -6.24082245 0.0 22.88301565
296 1 -6.24082245 2.08027415 20.8027415
297 1 -8.3210966 0.0 24.9632898
298 1 -8.3210966 2.08027415 27.04356395
299 1 -6.24082245 0.0 27.04356395
300 1 -6.24082245 2.08027415 24.9632898
301 1 -8.3210966 0.0 29.1238381
302 1 -8.3210966 2.08027415 31.20411225
303 1 -6.24082245 0.0 31.20411225
304 1 -6.24082245 2.08027415 29.1238381
305 1 -8.3210966 0.0 33.2843864
306 1 -6.24082245 2.08027415 33.2843864
307 1 -8.3210966 4.1605483 0.0
308 1 -8.3210966 6.24082245 2.08027415
309 1 -6.24082245 4.1605483 2.08027415
310 1 -6.24082245 6.24082245 0.0
311 1 -8.3210966 4.1605483 4.1605483
312 1 -8.3210966 6.24082245 6.24082245
313 1 -6.24082245 4.1605483 6.24082245
314 1 -6.24082245 6.24082245 4.1605483
315 1 -8.3210966 4.1605483 8.3210966
316 1 -8.3210966 6.24082245 10.40137075
317 1 -6.24082245 4.1605483 10.40137075
318 1 -6.24082245 6.24082245 8.3210966
319 1 -8.3210966 4.1605483 12.4816449
320 1 -8.3210966 6.24082245 14.56191905
321 1 -6.24082245 4.1605483 14.56191905
322 1 -6.24082245 6.24082245 12.4816449
323 1 -8.3210966 4.1605483 16.6421932
324 1 -8.3210966 6.24082245 18.72246735
325 1 -6.24082245 4.1605483 18.72246735
326 1 -6.24082245 6.24082245 16.6421932
327 1 -8.3210966 4.1605483 20.8027415
328 1 -8.3210966 6.24082245 22.88301565
329 1 -6.24082245 4.1605483 22.88301565
330 1 -6.24082245 6.24082245 20.8027415
331 1 -8.3210966 4.1605483 24.9632898
332 1 -8.3210966 6.24082245 27.04356395
333 1 -6.24082245 4.1605483 27.04356395
334 1 -6.24082245 6.24082245 24.9632898
335 1 -8.3210966 4.1605483 29.1238381
336 1 -8.3210966 6.24082245 31.20411225
337 1 -6.24082245 4.1605483 31.20411225
338 1 -6.24082245 6.24082245 29.1238381
339 1 -8.3210966 4.1605483 33.2843864
340 1 -6.24082245 6.24082245 33.2843864
341 1 -8.3210966 8.3210966 0.0
342 1 -8.3210966 10.40137075 2.08027415
343 1 -6.24082245 8.3210966 2.08027415
344 1 -6.24082245 10.40137075 0.0
345 1 -8.3210966 8.3210966 4.1605483
346 1 -8.3210966 10.40137075 6.24082245
347 1 -6.24082245 8.3210966 6.24082245
348 1 -6.24082245 10.40137075 4.1605483
349 1 -8.3210966 8.3210966 8.3210966
350 1 -8.3210966 10.40137075 10.40137075
351 1 -6.24082245 8.3210966 10.40137075
352 1 -6.24082245 10.40137075 8.3210966
353 1 -8.3210966 8.3210966 12.4816449
354 1 -8.3210966 10.40137075 14.56191905
355 1 -6.24082245 8.3210966 14.56191905
356 1 -6.24082245 10.40137075 12.4816449
357 1 -8.3210966 8.3210966 16.6421932
358 1 -8.3210966 10.40137075 18.72246735
359 1 -6.24082245 8.3210966 18.72246735
360 1 -6.24082245 10.40137075 16.6421932
361 1 -8.3210966 8.3210966 20.8027415
362 1 -8.3210966 10.40137075 22.88301565
363 1 -6.24082245 8.3210966 22.88301565
364 1 -6.24082245 10.40137075 20.8027415
365 1 -8.3210966 8.3210966 24.9632898
366 1 -8.3210966 10.40137075 27.04356395
367 1 -6.24082245 8.3210966 27.04356395
368 1 -6.24082245 10.40137075 24.9632898
369 1 -8.3210966 8.3210966 29.1238381
370 1 -8.3210966 10.40137075 31.20411225
371 1 -6.24082245 8.3210966 31.20411225
372 1 -6.24082245 10.40137075 29.1238381
373 1 -8.3210966 8.3210966 33.2843864
374 1 -6.24082245 10.40137075 33.2843864
375 1 -6.24082245 12.4816449 2.08027415
376 1 -6.24082245 12.4816449 6.24082245
377 1 -6.24082245 12.4816449 10.40137075
378 1 -6.24082245 12.4816449 14.56191905
379 1 -6.24082245 12.4816449 18.72246735
380 1 -6.24082245 12.4816449 22.88301565
381 1 -6.24082245 12.4816449 27.04356395
382 1 -6.24082245 12.4816449 31.20411225
383 1 -2.08027415 -14.56191905 0.0
384 1 -2.08027415 -14.56191905 4.1605483
385 1 -2.08027415 -14.56191905 8.3210966
386 1 -2.08027415 -14.56191905 12.4816449
387 1 -2.08027415 -14.56191905 16.6421932
388 1 -2.08027415 -14.56191905 20.8027415
389 1 -2.08027415 -14.56191905 24.9632898
390 1 -2.08027415 -14.56191905 29.1238381
391 1 -2.08027415 -14.56191905 33.2843864
392 1 -4.1605483 -12.4816449 0.0
393 1 -4.1605483 -10.40137075 2.08027415
394 1 -2.08027415 -12.4816449 2.08027415
395 1 -2.08027415 -10.40137075 0.0
396 1 -4.1605483 -12.4816449 4.1605483
397 1 -4.1605483 -10.40137075 6.24082245
398 1 -2.08027415 -12.4816449 6.24082245
399 1 -2.08027415 -10.40137075 4.1605483
400 1 -4.1605483 -12.4816449 8.3210966
401 1 -4.1605483 -10.40137075 10.40137075
402 1 -2.08027415 -12.4816449 10.40137075
403 1 -2.08027415 -10.40137075 8.3210966
404 1 -4.1605483 -12.4816449 12.4816449
405 1 -4.1605483 -10.40137075 14.56191905
406 1 -2.08027415 -12.4816449 14.56191905
407 1 -2.08027415 -10.40137075 12.4816449
408 1 -4.1605483 -12.4816449 16.6421932
409 1 -4.1605483 -10.40137075 18.72246735
410 1 -2.08027415 -12.4816449 18.72246735
411 1 -2.08027415 -10.40137075 16.6421932
412 1 -4.1605483 -12.4816449 20.8027415
413 1 -4.1605483 -10.40137075 22.88301565
414 1 -2.08027415 -12.4816449 22.88301565
415 1 -2.08027415 -10.40137075 20.8027415
416 1 -4.1605483 -12.4816449 24.9632898
417 1 -4.1605483 -10.40137075 27.04356395
418 1 -2.08027415 -12.4816449 27.04356395
419 1 -2.08027415 -10.40137075 24.9632898
420 1 -4.1605483 -12.4816449 29.1238381
421 1 -4.1605483 -10.40137075 31.20411225
422 1 -2.08027415 -12.4816449 31.20411225
423 1 -2.08027415 -10.40137075 29.1238381
424 1 -4.1605483 -12.4816449 33.2843864
425 1 -2.08027415 -10.40137075 33.2843864
426 1 -4.1605483 -8.3210966 0.0
427 1 -4.1605483 -6.24082245 2.08027415
428 1 -2.08027415 -8.3210966 2.08027415
429 1 -2.08027415 -6.24082245 0.0
430 1 -4.1605483 -8.3210966 4.1605483
431 1 -4.1605483 -6.24082245 6.24082245
432 1 -2.08027415 -8.3210966 6.24082245
433 1 -2.08027415 -6.24082245 4.1605483
434 1 -4.1605483 -8.3210966 8.3210966
435 1 -4.1605483 -6.24082245 10.40137075
436 1 -2.08027415 -8.3210966 10.40137075
437 1 -2.08027415 -6.24082245 8.3210966
438 1 -4.1605483 -8.3210966 12.4816449
439 1 -4.1605483 -6.24082245 14.56191905
440 1 -2.08027415 -8.3210966 14.56191905
441 1 -2.08027415 -6.24082245 12.4816449
442 1 -4.1605483 -8.3210966 16.6421932
443 1 -4.1605483 -6.24082245 18.72246735
444 1 -2.08027415 -8.3210966 18.72246735
445 1 -2.08027415 -6.24082245 16.6421932
446 1 -4.1605483 -8.3210966 20.8027415
447 1 -4.1605483 -6.24082245 22.88301565
448 1 -2.08027415 -8.3210966 22.88301565
449 1 -2.08027415 -6.24082245 20.8027415
450 1 -4.1605483 -8.3210966 24.9632898
451 1 -4.1605483 -6.24082245 27.04356395
452 1 -2.08027415 -8.3210966 27.04356395
453 1 -2.08027415 -6.24082245 24.9632898
454 1 -4.1605483 -8.3210966 29.1238381
455 1 -4.1605483 -6.24082245 31.20411225
456 1 -2.08027415 -8.3210966 31.20411225
457 1 -2.08027415 -6.24082245 29.1238381
458 1 -4.1605483 -8.3210966 33.2843864
459 1 -2.08027415 -6.24082245 33.2843864
460 1 -4.1605483 -4.1605483 0.0
461 1 -4.1605483 -2.08027415 2.08027415
462 1 -2.08027415 -4.1605483 2.08027415
463 1 -2.08027415 -2.08027415 0.0
464 1 -4.1605483 -4.1605483 4.1605483
465 1 -4.1605483 -2.08027415 6.24082245
466 1 -2.08027415 -4.1605483 6.24082245
467 1 -2.08027415 -2.08027415 4.1605483
468 1 -4.1605483 -4.1605483 8.3210966
469 1 -4.1605483 -2.08027415 10.40137075
470 1 -2.08027415 -4.1605483 10.40137075
471 1 -2.08027415 -2.08027415 8.3210966
472 1 -4.1605483 -4.1605483 12.4816449
473 1 -4.1605483 -2.08027415 14.56191905
474 1 -2.08027415 -4.1605483 14.56191905
475 1 -2.08027415 -2.08027415 12.4816449
476 1 -4.1605483 -4.1605483 16.6421932
477 1 -4.1605483 -2.08027415 18.72246735
478 1 -2.08027415 -4.1605483 18.72246735
479 1 -2.08027415 -2.08027415 16.6421932
480 1 -4.1605483 -4.1605483 20.8027415
481 1 -4.1605483 -2.08027415 22.88301565
482 1 -2.08027415 -4.1605483 22.88301565
483 1 -2.08027415 -2.08027415 20.8027415
484 1 -4.1605483 -4.1605483 24.9632898
485 1 -4.1605483 -2.08027415 27.04356395
486 1 -2.08027415 -4.1605483 27.04356395
487 1 -2.08027415 -2.08027415 24.9632898
488 1 -4.1605483 -4.1605483 29.1238381
489 1 -4.1605483 -2.08027415 31.20411225
490 1 -2.08027415 -4.1605483 31.20411225
491 1 -2.08027415 -2.08027415 29.1238381
492 1 -4.1605483 -4.1605483 33.2843864
493 1 -2.08027415 -2.08027415 33.2843864
494 1 -4.1605483 0.0 0.0
495 1 -4.1605483 2.08027415 2.08027415
496 1 -2.08027415 0.0 2.08027415
497 1 -2.08027415 2.08027415 0.0
498 1 -4.1605483 0.0 4.1605483
499 1 -4.1605483 2.08027415 6.24082245
500 1 -2.08027415 0.0 6.24082245
501 1 -2.08027415 2.08027415 4.1605483
502 1 -4.1605483 0.0 8.3210966
503 1 -4.1605483 2.08027415 10.40137075
504 1 -2.08027415 0.0 10.40137075
505 1 -2.08027415 2.08027415 8.3210966
506 1 -4.1605483 0.0 12.4816449
507 1 -4.1605483 2.08027415 14.56191905
508 1 -2.08027415 0.0 14.56191905
509 1 -2.08027415 2.08027415 12.4816449
510 1 -4.1605483 0.0 16.6421932
511 1 -4.1605483 2.08027415 18.72246735
512 1 -2.08027415 0.0 18.72246735
513 1 -2.08027415 2.08027415 16.6421932
514 1 -4.1605483 0.0 20.8027415
515 1 -4.1605483 2.08027415 22.88301565
516 1 -2.08027415 0.0 22.88301565
517 1 -2.08027415 2.08027415 20.8027415
518 1 -4.1605483 0.0 24.9632898
519 1 -4.1605483 2.08027415 27.04356395
520 1 -2.08027415 0.0 27.04356395
521 1 -2.08027415 2.08027415 24.9632898
522 1 -4.1605483 0.0 29.1238381
523 1 -4.1605483 2.08027415 31.20411225
524 1 -2.08027415 0.0 31.20411225
525 1 -2.08027415 2.08027415 29.1238381
526 1 -4.1605483 0.0 33.2843864
527 1 -2.08027415 2.08027415 33.2843864
528 1 -4.1605483 4.1605483 0.0
529 1 -4.1605483 6.24082245 2.08027415
530 1 -2.08027415 4.1605483 2.08027415
531 1 -2.08027415 6.24082245 0.0
532 1 -4.1605483 4.1605483 4.1605483
533 1 -4.1605483 6.24082245 6.24082245
534 1 -2.08027415 4.1605483 6.24082245
535 1 -2.08027415 6.24082245 4.1605483
536 1 -4.1605483 4.1605483 8.3210966
537 1 -4.1605483 6.24082245 10.40137075
538 1 -2.08027415 4.1605483 10.40137075
539 1 -2.08027415 6.24082245 8.3210966
540 1 -4.1605483 4.1605483 12.4816449
541 1 -4.1605483 6.24082245 14.56191905
542 1 -2.08027415 4.1605483 14.56191905
543 1 -2.08027415 6.24082245 12.4816449
544 1 -4.1605483 4.1605483 16.6421932
545 1 -4.1605483 6.24082245 18.72246735
546 1 -2.08027415 4.1605483 18.72246735
547 1 -2.08027415 6.24082245 16.6421932
548 1 -4.1605483 4.1605483 20.8027415
549 1 -4.1605483 6.24082245 22.88301565
550 1 -2.08027415 4.1605483 22.88301565
551 1 -2.08027415 6.24082245 20.8027415
552 1 -4.1605483 4.1605483 24.9632898
553 1 -4.1605483 6.24082245 27.04356395
554 1 -2.08027415 4.1605483 27.04356395
555 1 -2.08027415 6.24082245 24.9632898
556 1 -4.1605483 4.1605483 29.1238381
557 1 -4.1605483 6.24082245 31.20411225
558 1 -2.08027415 4.1605483 31.20411225
559 1 -2.08027415 6.24082245 29.1238381
560 1 -4.1605483 4.1605483 33.2843864
561 1 -2.08027415 6.24082245 33.2843864
562 1 -4.1605483 8.3210966 0.0
563 1 -4.1605483 10.40137075 2.08027415
564 1 -2.08027415 8.3210966 2.08027415
565 1 -2.08027415 10.40137075 0.0
566 1 -4.1605483 8.3210966 4.1605483
567 1 -4.1605483 10.40137075 6.24082245
568 1 -2.08027415 8.3210966 6.24082245
569 1 -2.08027415 10.40137075 4.1605483
570 1 -4.1605483 8.3210966 8.3210966
571 1 -4.1605483 10.40137075 10.40137075
572 1 -2.08027415 8.3210966 10.40137075
573 1 -2.08027415 10.40137075 8.3210966
574 1 -4.1605483 8.3210966 12.4816449
575 1 -4.1605483 10.40137075 14.56191905
576 1 -2.08027415 8.3210966 14.56191905
577 1 -2.08027415 10.40137075 12.4816449
578 1 -4.1605483 8.3210966 16.6421932
579 1 -4.1605483 10.40137075 18.72246735
580 1 -2.08027415 8.3210966 18.72246735
581 1 -2.08027415 10.40137075 16.6421932
582 1 -4.1605483 8.3210966 20.8027415
583 1 -4.1605483 10.40137075 22.88301565
584 1 -2.08027415 8.3210966 22.88301565
585 1 -2.08027415 10.40137075 20.8027415
586 1 -4.1605483 8.3210966 24.9632898
587 1 -4.1605483 10.40137075 27.04356395
588 1 -2.08027415 8.3210966 27.04356395
589 1 -2.08027415 10.40137075 24.9632898
590 1 -4.1605483 8.3210966 29.1238381
591 1 -4.1605483 10.40137075 31.20411225
592 1 -2.08027415 8.3210966 31.20411225
593 1 -2.08027415 10.40137075 29.1238381
594 1 -4.1605483 8.3210966 33.2843864
595 1 -2.08027415 10.40137075 33.2843864
596 1 -4.1605483 12.4816449 0.0
597 1 -2.08027415 12.4816449 2.08027415
598 1 -2.08027415 14.56191905 0.0
599 1 -4.1605483 12.4816449 4.1605483
600 1 -2.08027415 12.4816449 6.24082245
601 1 -2.08027415 14.56191905 4.1605483
602 1 -4.1605483 12.4816449 8.3210966
603 1 -2.08027415 12.4816449 10.40137075
604 1 -2.08027415 14.56191905 8.3210966
605 1 -4.1605483 12.4816449 12.4816449
606 1 -2.08027415 12.4816449 14.56191905
607 1 -2.08027415 14.56191905 12.4816449
608 1 -4.1605483 12.4816449 16.6421932
609 1 -2.08027415 12.4816449 18.72246735
610 1 -2.08027415 14.56191905 16.6421932
611 1 -4.1605483 12.4816449 20.8027415
612 1 -2.08027415 12.4816449 22.88301565
613 1 -2.08027415 14.56191905 20.8027415
614 1 -4.1605483 12.4816449 24.9632898
615 1 -2.08027415 12.4816449 27.04356395
616 1 -2.08027415 14.56191905 24.9632898
617 1 -4.1605483 12.4816449 29.1238381
618 1 -2.08027415 12.4816449 31.20411225
619 1 -2.08027415 14.56191905 29.1238381
620 1 -4.1605483 12.4816449 33.2843864
621 1 -2.08027415 14.56191905 33.2843864
622 1 0.0 -14.56191905 2.08027415
623 1 2.08027415 -14.56191905 0.0
624 1 0.0 -14.56191905 6.24082245
625 1 2.08027415 -14.56191905 4.1605483
626 1 0.0 -14.56191905 10.40137075
627 1 2.08027415 -14.56191905 8.3210966
628 1 0.0 -14.56191905 14.56191905
629 1 2.08027415 -14.56191905 12.4816449
630 1 0.0 -14.56191905 18.72246735
631 1 2.08027415 -14.56191905 16.6421932
632 1 0.0 -14.56191905 22.88301565
633 1 2.08027415 -14.56191905 20.8027415
634 1 0.0 -14.56191905 27.04356395
635 1 2.08027415 -14.56191905 24.9632898
636 1 0.0 -14.56191905 31.20411225
637 1 2.08027415 -14.56191905 29.1238381
638 1 2.08027415 -14.56191905 33.2843864
639 1 0.0 -12.4816449 0.0
640 1 0.0 -10.40137075 2.08027415
641 1 2.08027415 -12.4816449 2.08027415
642 1 2.08027415 -10.40137075 0.0
643 1 0.0 -12.4816449 4.1605483
644 1 0.0 -10.40137075 6.24082245
645 1 2.08027415 -12.4816449 6.24082245
646 1 2.08027415 -10.40137075 4.1605483
647 1 0.0 -12.4816449 8.3210966
648 1 0.0 -10.40137075 10.40137075
649 1 2.08027415 -12.4816449 10.40137075
650 1 2.08027415 -10.40137075 8.3210966
651 1 0.0 -12.4816449 12.4816449
652 1 0.0 -10.40137075 14.56191905
653 1 2.08027415 -12.4816449 14.56191905
654 1 2.08027415 -10.40137075 12.4816449
655 1 0.0 -12.4816449 16.6421932
656 1 0.0 -10.40137075 18.72246735
657 1 2.08027415 -12.4816449 18.72246735
658 1 2.08027415 -10.40137075 16.6421932
659 1 0.0 -12.4816449 20.8027415
660 1 0.0 -10.40137075 22.88301565
661 1 2.08027415 -12.4816449 22.88301565
662 1 2.08027415 -10.40137075 20.8027415
663 1 0.0 -12.4816449 24.9632898
664 1 0.0 -10.40137075 27.04356395
665 1 2.08027415 -12.4816449 27.04356395
666 1 2.08027415 -10.40137075 24.9632898
667 1 0.0 -12.4816449 29.1238381
668 1 0.0 -10.40137075 31.20411225
669 1 2.08027415 -12.4816449 31.20411225
670 1 2.08027415 -10.40137075 29.1238381
671 1 0.0 -12.4816449 33.2843864
672 1 2.08027415 -10.40137075 33.2843864
673 1 0.0 -8.3210966 0.0
674 1 0.0 -6.24082245 2.08027415
675 1 2.08027415 -8.3210966 2.08027415
676 1 2.08027415 -6.24082245 0.0
677 1 0.0 -8.3210966 4.1605483
678 1 0.0 -6.24082245 6.24082245
679 1 2.08027415 -8.3210966 6.24082245
680 1 2.08027415 -6.24082245 4.1605483
681 1 0.0 -8.3210966 8.3210966
682 1 0.0 -6.24082245 10.40137075
683 1 2.08027415 -8.3210966 10.40137075
684 1 2.08027415 -6.24082245 8.3210966
685 1 0.0 -8.3210966 12.4816449
686 1 0.0 -6.24082245 14.56191905
687 1 2.08027415 -8.3210966 14.56191905
688 1 2.08027415 -6.24082245 12.4816449
689 1 0.0 -8.3210966 16.6421932
690 1 0.0 -6.24082245 18.72246735
691 1 2.08027415 -8.3210966 18.72246735
692 1 2.08027415 -6.24082245 16.6421932
693 1 0.0 -8.3210966 20.8027415
694 1 0.0 -6.24082245 22.88301565
695 1 2.08027415 -8.3210966 22.88301565
696 1 2.08027415 -6.24082245 20.8027415
697 1 0.0 -8.3210966 24.9632898
698 1 0.0 -6.24082245 27.04356395
699 1 2.08027415 -8.3210966 27.04356395
700 1 2.08027415 -6.24082245 24.9632898
701 1 0.0 -8.3210966 29.1238381
702 1 0.0 -6.24082245 31.20411225
703 1 2.08027415 -8.3210966 31.20411225
704 1 2.08027415 -6.24082245 29.1238381
705 1 0.0 -8.3210966 33.2843864
706 1 2.08027415 -6.24082245 33.2843864
707 1 0.0 -4.1605483 0.0
708 1 0.0 -2.08027415 2.08027415
709 1 2.08027415 -4.1605483 2.08027415
710 1 2.08027415 -2.08027415 0.0
711 1 0.0 -4.1605483 4.1605483
712 1 0.0 -2.08027415 6.24082245
713 1 2.08027415 -4.1605483 6.24082245
714 1 2.08027415 -2.08027415 4.1605483
715 1 0.0 -4.1605483 8.3210966
716 1 0.0 -2.08027415 10.40137075
717 1 2.08027415 -4.1605483 10.40137075
718 1 2.08027415 -2.08027415 8.3210966
719 1 0.0 -4.1605483 12.4816449
720 1 0.0 -2.08027415 14.56191905
721 1 2.08027415 -4.1605483 14.56191905
722 1 2.08027415 -2.08027415 12.4816449
723 1 0.0 -4.1605483 16.6421932
724 1 0.0 -2.08027415 18.72246735
725 1 2.08027415 -4.1605483 18.72246735
726 1 2.08027415 -2.08027415 16.6421932
727 1 0.0 -4.1605483 20.8027415
728 1 0.0 -2.08027415 22.88301565
729 1 2.08027415 -4.1605483 22.88301565
730 1 2.08027415 -2.08027415 20.8027415
731 1 0.0 -4.1605483 24.9632898
732 1 0.0 -2.08027415 27.04356395
733 1 2.08027415 -4.1605483 27.04356395
734 1 2.08027415 -2.08027415 24.9632898
735 1 0.0 -4.1605483 29.1238381
736 1 0.0 -2.08027415 31.20411225
737 1 2.08027415 -4.1605483 31.20411225
738 1 2.08027415 -2.08027415 29.1238381
739 1 0.0 -4.1605483 33.2843864
740 1 2.08027415 -2.08027415 33.2843864
741 1 0.0 0.0 0.0
742 1 0.0 2.08027415 2.08027415
743 1 2.08027415 0.0 2.08027415
744 1 2.08027415 2.08027415 0.0
745 1 0.0 0.0 4.1605483
746 1 0.0 2.08027415 6.24082245
747 1 2.08027415 0.0 6.24082245
748 1 2.08027415 2.08027415 4.1605483
749 1 0.0 0.0 8.3210966
750 1 0.0 2.08027415 10.40137075
751 1 2.08027415 0.0 10.40137075
752 1 2.08027415 2.08027415 8.3210966
753 1 0.0 0.0 12.4816449
754 1 0.0 2.08027415 14.56191905
755 1 2.08027415 0.0 14.56191905
756 1 2.08027415 2.08027415 12.4816449
757 1 0.0 0.0 16.6421932
758 1 0.0 2.08027415 18.72246735
759 1 2.08027415 0.0 18.72246735
760 1 2.08027415 2.08027415 16.6421932
761 1 0.0 0.0 20.8027415
762 1 0.0 2.08027415 22.88301565
763 1 2.08027415 0.0 22.88301565
764 1 2.08027415 2.08027415 20.8027415
765 1 0.0 0.0 24.9632898
766 1 0.0 2.08027415 27.04356395
767 1 2.08027415 0.0 27.04356395
768 1 2.08027415 2.08027415 24.9632898
769 1 0.0 0.0 29.1238381
770 1 0.0 2.08027415 31.20411225
771 1 2.08027415 0.0 31.20411225
772 1 2.08027415 2.08027415 29.1238381
773 1 0.0 0.0 33.2843864
774 1 2.08027415 2.08027415 33.2843864
775 1 0.0 4.1605483 0.0
776 1 0.0 6.24082245 2.08027415
777 1 2.08027415 4.1605483 2.08027415
778 1 2.08027415 6.24082245 0.0