# Cluster_Combination Program by NingWang
 1726 atoms
 1 atom types
 -100 100 xlo xhi
 -100 100 ylo yhi
 -100 100 zlo zhi

 Atoms  # atomic

1 1 -31.20411225 -29.1238381 -22.88301565
2 1 -31.20411225 -27.04356395 -24.9632898
3 1 -31.20411225 -29.1238381 -18.72246735
4 1 -31.20411225 -27.04356395 -20.8027415
5 1 -31.20411225 -27.04356395 -16.6421932
6 1 -31.20411225 -24.9632898 -27.04356395
7 1 -31.20411225 -22.88301565 -29.1238381
8 1 -33.2843864 -22.88301565 -22.88301565
9 1 -31.20411225 -24.9632898 -22.88301565
10 1 -31.20411225 -22.88301565 -24.9632898
11 1 -33.2843864 -24.9632898 -20.8027415
12 1 -33.2843864 -22.88301565 -18.72246735
13 1 -31.20411225 -24.9632898 -18.72246735
14 1 -31.20411225 -22.88301565 -20.8027415
15 1 -33.2843864 -24.9632898 -16.6421932
16 1 -33.2843864 -22.88301565 -14.56191905
17 1 -31.20411225 -24.9632898 -14.56191905
18 1 -31.20411225 -22.88301565 -16.6421932
19 1 -31.20411225 -22.88301565 -12.4816449
20 1 -31.20411225 -20.8027415 -27.04356395
21 1 -31.20411225 -18.72246735 -29.1238381
22 1 -33.2843864 -20.8027415 -24.9632898
23 1 -33.2843864 -18.72246735 -22.88301565
24 1 -31.20411225 -20.8027415 -22.88301565
25 1 -31.20411225 -18.72246735 -24.9632898
26 1 -33.2843864 -20.8027415 -20.8027415
27 1 -33.2843864 -18.72246735 -18.72246735
28 1 -31.20411225 -20.8027415 -18.72246735
29 1 -31.20411225 -18.72246735 -20.8027415
30 1 -33.2843864 -20.8027415 -16.6421932
31 1 -33.2843864 -18.72246735 -14.56191905
32 1 -31.20411225 -20.8027415 -14.56191905
33 1 -31.20411225 -18.72246735 -16.6421932
34 1 -31.20411225 -20.8027415 -10.40137075
35 1 -31.20411225 -18.72246735 -12.4816449
36 1 -31.20411225 -16.6421932 -27.04356395
37 1 -33.2843864 -16.6421932 -24.9632898
38 1 -33.2843864 -14.56191905 -22.88301565
39 1 -31.20411225 -16.6421932 -22.88301565
40 1 -31.20411225 -14.56191905 -24.9632898
41 1 -33.2843864 -16.6421932 -20.8027415
42 1 -33.2843864 -14.56191905 -18.72246735
43 1 -31.20411225 -16.6421932 -18.72246735
44 1 -31.20411225 -14.56191905 -20.8027415
45 1 -33.2843864 -16.6421932 -16.6421932
46 1 -31.20411225 -16.6421932 -14.56191905
47 1 -31.20411225 -14.56191905 -16.6421932
48 1 -31.20411225 -14.56191905 -12.4816449
49 1 -31.20411225 -12.4816449 -22.88301565
50 1 -31.20411225 -12.4816449 -18.72246735
51 1 -31.20411225 -10.40137075 -20.8027415
52 1 -31.20411225 -12.4816449 -14.56191905
53 1 -29.1238381 -31.20411225 -22.88301565
54 1 -27.04356395 -31.20411225 -24.9632898
55 1 -29.1238381 -31.20411225 -18.72246735
56 1 -27.04356395 -31.20411225 -20.8027415
57 1 -27.04356395 -31.20411225 -16.6421932
58 1 -29.1238381 -27.04356395 -27.04356395
59 1 -27.04356395 -29.1238381 -27.04356395
60 1 -27.04356395 -27.04356395 -29.1238381
61 1 -29.1238381 -29.1238381 -24.9632898
62 1 -29.1238381 -27.04356395 -22.88301565
63 1 -27.04356395 -29.1238381 -22.88301565
64 1 -27.04356395 -27.04356395 -24.9632898
65 1 -29.1238381 -29.1238381 -20.8027415
66 1 -29.1238381 -27.04356395 -18.72246735
67 1 -27.04356395 -29.1238381 -18.72246735
68 1 -27.04356395 -27.04356395 -20.8027415
69 1 -29.1238381 -29.1238381 -16.6421932
70 1 -29.1238381 -27.04356395 -14.56191905
71 1 -27.04356395 -29.1238381 -14.56191905
72 1 -27.04356395 -27.04356395 -16.6421932
73 1 -29.1238381 -29.1238381 -12.4816449
74 1 -29.1238381 -27.04356395 -10.40137075
75 1 -27.04356395 -29.1238381 -10.40137075
76 1 -27.04356395 -27.04356395 -12.4816449
77 1 -29.1238381 -22.88301565 -31.20411225
78 1 -27.04356395 -24.9632898 -31.20411225
79 1 -29.1238381 -24.9632898 -29.1238381
80 1 -29.1238381 -22.88301565 -27.04356395
81 1 -27.04356395 -24.9632898 -27.04356395
82 1 -27.04356395 -22.88301565 -29.1238381
83 1 -29.1238381 -24.9632898 -24.9632898
84 1 -29.1238381 -22.88301565 -22.88301565
85 1 -27.04356395 -24.9632898 -22.88301565
86 1 -27.04356395 -22.88301565 -24.9632898
87 1 -29.1238381 -24.9632898 -20.8027415
88 1 -29.1238381 -22.88301565 -18.72246735
89 1 -27.04356395 -24.9632898 -18.72246735
90 1 -27.04356395 -22.88301565 -20.8027415
91 1 -29.1238381 -24.9632898 -16.6421932
92 1 -29.1238381 -22.88301565 -14.56191905
93 1 -27.04356395 -24.9632898 -14.56191905
94 1 -27.04356395 -22.88301565 -16.6421932
95 1 -29.1238381 -24.9632898 -12.4816449
96 1 -29.1238381 -22.88301565 -10.40137075
97 1 -27.04356395 -24.9632898 -10.40137075
98 1 -27.04356395 -22.88301565 -12.4816449
99 1 -27.04356395 -22.88301565 -8.3210966
100 1 -29.1238381 -18.72246735 -31.20411225
101 1 -27.04356395 -20.8027415 -31.20411225
102 1 -29.1238381 -20.8027415 -29.1238381
103 1 -29.1238381 -18.72246735 -27.04356395
104 1 -27.04356395 -20.8027415 -27.04356395
105 1 -27.04356395 -18.72246735 -29.1238381
106 1 -29.1238381 -20.8027415 -24.9632898
107 1 -29.1238381 -18.72246735 -22.88301565
108 1 -27.04356395 -20.8027415 -22.88301565
109 1 -27.04356395 -18.72246735 -24.9632898
110 1 -29.1238381 -20.8027415 -20.8027415
111 1 -29.1238381 -18.72246735 -18.72246735
112 1 -27.04356395 -20.8027415 -18.72246735
113 1 -27.04356395 -18.72246735 -20.8027415
114 1 -29.1238381 -20.8027415 -16.6421932
115 1 -29.1238381 -18.72246735 -14.56191905
116 1 -27.04356395 -20.8027415 -14.56191905
117 1 -27.04356395 -18.72246735 -16.6421932
118 1 -29.1238381 -20.8027415 -12.4816449
119 1 -29.1238381 -18.72246735 -10.40137075
120 1 -27.04356395 -20.8027415 -10.40137075
121 1 -27.04356395 -18.72246735 -12.4816449
122 1 -29.1238381 -20.8027415 -8.3210966
123 1 -27.04356395 -18.72246735 -8.3210966
124 1 -27.04356395 -16.6421932 -31.20411225
125 1 -29.1238381 -16.6421932 -29.1238381
126 1 -29.1238381 -14.56191905 -27.04356395
127 1 -27.04356395 -16.6421932 -27.04356395
128 1 -27.04356395 -14.56191905 -29.1238381
129 1 -29.1238381 -16.6421932 -24.9632898
130 1 -29.1238381 -14.56191905 -22.88301565
131 1 -27.04356395 -16.6421932 -22.88301565
132 1 -27.04356395 -14.56191905 -24.9632898
133 1 -29.1238381 -16.6421932 -20.8027415
134 1 -29.1238381 -14.56191905 -18.72246735
135 1 -27.04356395 -16.6421932 -18.72246735
136 1 -27.04356395 -14.56191905 -20.8027415
137 1 -29.1238381 -16.6421932 -16.6421932
138 1 -29.1238381 -14.56191905 -14.56191905
139 1 -27.04356395 -16.6421932 -14.56191905
140 1 -27.04356395 -14.56191905 -16.6421932
141 1 -29.1238381 -16.6421932 -12.4816449
142 1 -29.1238381 -14.56191905 -10.40137075
143 1 -27.04356395 -16.6421932 -10.40137075
144 1 -27.04356395 -14.56191905 -12.4816449
145 1 -27.04356395 -14.56191905 -8.3210966
146 1 -29.1238381 -12.4816449 -29.1238381
147 1 -29.1238381 -10.40137075 -27.04356395
148 1 -27.04356395 -12.4816449 -27.04356395
149 1 -27.04356395 -10.40137075 -29.1238381
150 1 -29.1238381 -12.4816449 -24.9632898
151 1 -29.1238381 -10.40137075 -22.88301565
152 1 -27.04356395 -12.4816449 -22.88301565
153 1 -27.04356395 -10.40137075 -24.9632898
154 1 -29.1238381 -12.4816449 -20.8027415
155 1 -29.1238381 -10.40137075 -18.72246735
156 1 -27.04356395 -12.4816449 -18.72246735
157 1 -27.04356395 -10.40137075 -20.8027415
158 1 -29.1238381 -12.4816449 -16.6421932
159 1 -29.1238381 -10.40137075 -14.56191905
160 1 -27.04356395 -12.4816449 -14.56191905
161 1 -27.04356395 -10.40137075 -16.6421932
162 1 -29.1238381 -12.4816449 -12.4816449
163 1 -27.04356395 -12.4816449 -10.40137075
164 1 -27.04356395 -10.40137075 -12.4816449
165 1 -27.04356395 -8.3210966 -22.88301565
166 1 -29.1238381 -8.3210966 -20.8027415
167 1 -27.04356395 -8.3210966 -18.72246735
168 1 -27.04356395 -8.3210966 -14.56191905
169 1 -24.9632898 -31.20411225 -27.04356395
170 1 -22.88301565 -31.20411225 -29.1238381
171 1 -24.9632898 -31.20411225 -22.88301565
172 1 -22.88301565 -33.2843864 -22.88301565
173 1 -22.88301565 -31.20411225 -24.9632898
174 1 -24.9632898 -33.2843864 -20.8027415
175 1 -24.9632898 -31.20411225 -18.72246735
176 1 -22.88301565 -33.2843864 -18.72246735
177 1 -22.88301565 -31.20411225 -20.8027415
178 1 -24.9632898 -33.2843864 -16.6421932
179 1 -24.9632898 -31.20411225 -14.56191905
180 1 -22.88301565 -33.2843864 -14.56191905
181 1 -22.88301565 -31.20411225 -16.6421932
182 1 -22.88301565 -31.20411225 -12.4816449
183 1 -24.9632898 -27.04356395 -31.20411225
184 1 -22.88301565 -29.1238381 -31.20411225
185 1 -24.9632898 -29.1238381 -29.1238381
186 1 -24.9632898 -27.04356395 -27.04356395
187 1 -22.88301565 -29.1238381 -27.04356395
188 1 -22.88301565 -27.04356395 -29.1238381
189 1 -24.9632898 -29.1238381 -24.9632898
190 1 -24.9632898 -27.04356395 -22.88301565
191 1 -22.88301565 -29.1238381 -22.88301565
192 1 -22.88301565 -27.04356395 -24.9632898
193 1 -24.9632898 -29.1238381 -20.8027415
194 1 -24.9632898 -27.04356395 -18.72246735
195 1 -22.88301565 -29.1238381 -18.72246735
196 1 -22.88301565 -27.04356395 -20.8027415
197 1 -24.9632898 -29.1238381 -16.6421932
198 1 -24.9632898 -27.04356395 -14.56191905
199 1 -22.88301565 -29.1238381 -14.56191905
200 1 -22.88301565 -27.04356395 -16.6421932
201 1 -24.9632898 -29.1238381 -12.4816449
202 1 -24.9632898 -27.04356395 -10.40137075
203 1 -22.88301565 -29.1238381 -10.40137075
204 1 -22.88301565 -27.04356395 -12.4816449
205 1 -22.88301565 -27.04356395 -8.3210966
206 1 -24.9632898 -22.88301565 -31.20411225
207 1 -22.88301565 -24.9632898 -31.20411225
208 1 -22.88301565 -22.88301565 -33.2843864
209 1 -24.9632898 -24.9632898 -29.1238381
210 1 -24.9632898 -22.88301565 -27.04356395
211 1 -22.88301565 -24.9632898 -27.04356395
212 1 -22.88301565 -22.88301565 -29.1238381
213 1 -24.9632898 -24.9632898 -24.9632898
214 1 -24.9632898 -22.88301565 -22.88301565
215 1 -22.88301565 -24.9632898 -22.88301565
216 1 -22.88301565 -22.88301565 -24.9632898
217 1 -24.9632898 -24.9632898 -20.8027415
218 1 -24.9632898 -22.88301565 -18.72246735
219 1 -22.88301565 -24.9632898 -18.72246735
220 1 -22.88301565 -22.88301565 -20.8027415
221 1 -24.9632898 -24.9632898 -16.6421932
222 1 -24.9632898 -22.88301565 -14.56191905
223 1 -22.88301565 -24.9632898 -14.56191905
224 1 -22.88301565 -22.88301565 -16.6421932
225 1 -24.9632898 -24.9632898 -12.4816449
226 1 -24.9632898 -22.88301565 -10.40137075
227 1 -22.88301565 -24.9632898 -10.40137075
228 1 -22.88301565 -22.88301565 -12.4816449
229 1 -24.9632898 -24.9632898 -8.3210966
230 1 -24.9632898 -22.88301565 -6.24082245
231 1 -22.88301565 -24.9632898 -6.24082245
232 1 -22.88301565 -22.88301565 -8.3210966
233 1 -24.9632898 -20.8027415 -33.2843864
234 1 -24.9632898 -18.72246735 -31.20411225
235 1 -22.88301565 -20.8027415 -31.20411225
236 1 -22.88301565 -18.72246735 -33.2843864
237 1 -24.9632898 -20.8027415 -29.1238381
238 1 -24.9632898 -18.72246735 -27.04356395
239 1 -22.88301565 -20.8027415 -27.04356395
240 1 -22.88301565 -18.72246735 -29.1238381
241 1 -24.9632898 -20.8027415 -24.9632898
242 1 -24.9632898 -18.72246735 -22.88301565
243 1 -22.88301565 -20.8027415 -22.88301565
244 1 -22.88301565 -18.72246735 -24.9632898
245 1 -24.9632898 -20.8027415 -20.8027415
246 1 -24.9632898 -18.72246735 -18.72246735
247 1 -22.88301565 -20.8027415 -18.72246735
248 1 -22.88301565 -18.72246735 -20.8027415
249 1 -24.9632898 -20.8027415 -16.6421932
250 1 -24.9632898 -18.72246735 -14.56191905
251 1 -22.88301565 -20.8027415 -14.56191905
252 1 -22.88301565 -18.72246735 -16.6421932
253 1 -24.9632898 -20.8027415 -12.4816449
254 1 -24.9632898 -18.72246735 -10.40137075
255 1 -22.88301565 -20.8027415 -10.40137075
256 1 -22.88301565 -18.72246735 -12.4816449
257 1 -24.9632898 -20.8027415 -8.3210966
258 1 -24.9632898 -18.72246735 -6.24082245
259 1 -22.88301565 -20.8027415 -6.24082245
260 1 -22.88301565 -18.72246735 -8.3210966
261 1 -24.9632898 -16.6421932 -33.2843864
262 1 -24.9632898 -14.56191905 -31.20411225
263 1 -22.88301565 -16.6421932 -31.20411225
264 1 -22.88301565 -14.56191905 -33.2843864
265 1 -24.9632898 -16.6421932 -29.1238381
266 1 -24.9632898 -14.56191905 -27.04356395
267 1 -22.88301565 -16.6421932 -27.04356395
268 1 -22.88301565 -14.56191905 -29.1238381
269 1 -24.9632898 -16.6421932 -24.9632898
270 1 -24.9632898 -14.56191905 -22.88301565
271 1 -22.88301565 -16.6421932 -22.88301565
272 1 -22.88301565 -14.56191905 -24.9632898
273 1 -24.9632898 -16.6421932 -20.8027415
274 1 -24.9632898 -14.56191905 -18.72246735
275 1 -22.88301565 -16.6421932 -18.72246735
276 1 -22.88301565 -14.56191905 -20.8027415
277 1 -24.9632898 -16.6421932 -16.6421932
278 1 -24.9632898 -14.56191905 -14.56191905
279 1 -22.88301565 -16.6421932 -14.56191905
280 1 -22.88301565 -14.56191905 -16.6421932
281 1 -24.9632898 -16.6421932 -12.4816449
282 1 -24.9632898 -14.56191905 -10.40137075
283 1 -22.88301565 -16.6421932 -10.40137075
284 1 -22.88301565 -14.56191905 -12.4816449
285 1 -24.9632898 -16.6421932 -8.3210966
286 1 -22.88301565 -16.6421932 -6.24082245
287 1 -22.88301565 -14.56191905 -8.3210966
288 1 -22.88301565 -12.4816449 -31.20411225
289 1 -24.9632898 -12.4816449 -29.1238381
290 1 -24.9632898 -10.40137075 -27.04356395
291 1 -22.88301565 -12.4816449 -27.04356395
292 1 -22.88301565 -10.40137075 -29.1238381
293 1 -24.9632898 -12.4816449 -24.9632898
294 1 -24.9632898 -10.40137075 -22.88301565
295 1 -22.88301565 -12.4816449 -22.88301565
296 1 -22.88301565 -10.40137075 -24.9632898
297 1 -24.9632898 -12.4816449 -20.8027415
298 1 -24.9632898 -10.40137075 -18.72246735
299 1 -22.88301565 -12.4816449 -18.72246735
300 1 -22.88301565 -10.40137075 -20.8027415
301 1 -24.9632898 -12.4816449 -16.6421932
302 1 -24.9632898 -10.40137075 -14.56191905
303 1 -22.88301565 -12.4816449 -14.56191905
304 1 -22.88301565 -10.40137075 -16.6421932
305 1 -24.9632898 -12.4816449 -12.4816449
306 1 -24.9632898 -10.40137075 -10.40137075
307 1 -22.88301565 -12.4816449 -10.40137075
308 1 -22.88301565 -10.40137075 -12.4816449
309 1 -24.9632898 -12.4816449 -8.3210966
310 1 -22.88301565 -8.3210966 -27.04356395
311 1 -24.9632898 -8.3210966 -24.9632898
312 1 -24.9632898 -6.24082245 -22.88301565
313 1 -22.88301565 -8.3210966 -22.88301565
314 1 -22.88301565 -6.24082245 -24.9632898
315 1 -24.9632898 -8.3210966 -20.8027415
316 1 -24.9632898 -6.24082245 -18.72246735
317 1 -22.88301565 -8.3210966 -18.72246735
318 1 -22.88301565 -6.24082245 -20.8027415
319 1 -24.9632898 -8.3210966 -16.6421932
320 1 -22.88301565 -8.3210966 -14.56191905
321 1 -22.88301565 -6.24082245 -16.6421932
322 1 -24.9632898 -8.3210966 -12.4816449
323 1 -20.8027415 -31.20411225 -27.04356395
324 1 -18.72246735 -31.20411225 -29.1238381
325 1 -20.8027415 -33.2843864 -24.9632898
326 1 -20.8027415 -31.20411225 -22.88301565
327 1 -18.72246735 -33.2843864 -22.88301565
328 1 -18.72246735 -31.20411225 -24.9632898
329 1 -20.8027415 -33.2843864 -20.8027415
330 1 -20.8027415 -31.20411225 -18.72246735
331 1 -18.72246735 -33.2843864 -18.72246735
332 1 -18.72246735 -31.20411225 -20.8027415
333 1 -20.8027415 -33.2843864 -16.6421932
334 1 -20.8027415 -31.20411225 -14.56191905
335 1 -18.72246735 -33.2843864 -14.56191905
336 1 -18.72246735 -31.20411225 -16.6421932
337 1 -20.8027415 -31.20411225 -10.40137075
338 1 -18.72246735 -31.20411225 -12.4816449
339 1 -20.8027415 -27.04356395 -31.20411225
340 1 -18.72246735 -29.1238381 -31.20411225
341 1 -20.8027415 -29.1238381 -29.1238381
342 1 -20.8027415 -27.04356395 -27.04356395
343 1 -18.72246735 -29.1238381 -27.04356395
344 1 -18.72246735 -27.04356395 -29.1238381
345 1 -20.8027415 -29.1238381 -24.9632898
346 1 -20.8027415 -27.04356395 -22.88301565
347 1 -18.72246735 -29.1238381 -22.88301565
348 1 -18.72246735 -27.04356395 -24.9632898
349 1 -20.8027415 -29.1238381 -20.8027415
350 1 -20.8027415 -27.04356395 -18.72246735
351 1 -18.72246735 -29.1238381 -18.72246735
352 1 -18.72246735 -27.04356395 -20.8027415
353 1 -20.8027415 -29.1238381 -16.6421932
354 1 -20.8027415 -27.04356395 -14.56191905
355 1 -18.72246735 -29.1238381 -14.56191905
356 1 -18.72246735 -27.04356395 -16.6421932
357 1 -20.8027415 -29.1238381 -12.4816449
358 1 -20.8027415 -27.04356395 -10.40137075
359 1 -18.72246735 -29.1238381 -10.40137075
360 1 -18.72246735 -27.04356395 -12.4816449
361 1 -20.8027415 -29.1238381 -8.3210966
362 1 -18.72246735 -27.04356395 -8.3210966
363 1 -20.8027415 -24.9632898 -33.2843864
364 1 -20.8027415 -22.88301565 -31.20411225
365 1 -18.72246735 -24.9632898 -31.20411225
366 1 -18.72246735 -22.88301565 -33.2843864
367 1 -20.8027415 -24.9632898 -29.1238381
368 1 -20.8027415 -22.88301565 -27.04356395
369 1 -18.72246735 -24.9632898 -27.04356395
370 1 -18.72246735 -22.88301565 -29.1238381
371 1 -20.8027415 -24.9632898 -24.9632898
372 1 -20.8027415 -22.88301565 -22.88301565
373 1 -18.72246735 -24.9632898 -22.88301565
374 1 -18.72246735 -22.88301565 -24.9632898
375 1 -20.8027415 -24.9632898 -20.8027415
376 1 -20.8027415 -22.88301565 -18.72246735
377 1 -18.72246735 -24.9632898 -18.72246735
378 1 -18.72246735 -22.88301565 -20.8027415
379 1 -20.8027415 -24.9632898 -16.6421932
380 1 -20.8027415 -22.88301565 -14.56191905
381 1 -18.72246735 -24.9632898 -14.56191905
382 1 -18.72246735 -22.88301565 -16.6421932
383 1 -20.8027415 -24.9632898 -12.4816449
384 1 -20.8027415 -22.88301565 -10.40137075
385 1 -18.72246735 -24.9632898 -10.40137075
386 1 -18.72246735 -22.88301565 -12.4816449
387 1 -20.8027415 -24.9632898 -8.3210966
388 1 -20.8027415 -22.88301565 -6.24082245
389 1 -18.72246735 -24.9632898 -6.24082245
390 1 -18.72246735 -22.88301565 -8.3210966
391 1 -20.8027415 -20.8027415 -33.2843864
392 1 -20.8027415 -18.72246735 -31.20411225
393 1 -18.72246735 -20.8027415 -31.20411225
394 1 -18.72246735 -18.72246735 -33.2843864
395 1 -20.8027415 -20.8027415 -29.1238381
396 1 -20.8027415 -18.72246735 -27.04356395
397 1 -18.72246735 -20.8027415 -27.04356395
398 1 -18.72246735 -18.72246735 -29.1238381
399 1 -20.8027415 -20.8027415 -24.9632898
400 1 -20.8027415 -18.72246735 -22.88301565
401 1 -18.72246735 -20.8027415 -22.88301565
402 1 -18.72246735 -18.72246735 -24.9632898
403 1 -20.8027415 -20.8027415 -20.8027415
404 1 -20.8027415 -18.72246735 -18.72246735
405 1 -18.72246735 -20.8027415 -18.72246735
406 1 -18.72246735 -18.72246735 -20.8027415
407 1 -20.8027415 -20.8027415 -16.6421932
408 1 -20.8027415 -18.72246735 -14.56191905
409 1 -18.72246735 -20.8027415 -14.56191905
410 1 -18.72246735 -18.72246735 -16.6421932
411 1 -20.8027415 -20.8027415 -12.4816449
412 1 -20.8027415 -18.72246735 -10.40137075
413 1 -18.72246735 -20.8027415 -10.40137075
414 1 -18.72246735 -18.72246735 -12.4816449
415 1 -20.8027415 -20.8027415 -8.3210966
416 1 -20.8027415 -18.72246735 -6.24082245
417 1 -18.72246735 -20.8027415 -6.24082245
418 1 -18.72246735 -18.72246735 -8.3210966
419 1 -20.8027415 -16.6421932 -33.2843864
420 1 -20.8027415 -14.56191905 -31.20411225
421 1 -18.72246735 -16.6421932 -31.20411225
422 1 -18.72246735 -14.56191905 -33.2843864
423 1 -20.8027415 -16.6421932 -29.1238381
424 1 -20.8027415 -14.56191905 -27.04356395
425 1 -18.72246735 -16.6421932 -27.04356395
426 1 -18.72246735 -14.56191905 -29.1238381
427 1 -20.8027415 -16.6421932 -24.9632898
428 1 -20.8027415 -14.56191905 -22.88301565
429 1 -18.72246735 -16.6421932 -22.88301565
430 1 -18.72246735 -14.56191905 -24.9632898
431 1 -20.8027415 -16.6421932 -20.8027415
432 1 -20.8027415 -14.56191905 -18.72246735
433 1 -18.72246735 -16.6421932 -18.72246735
434 1 -18.72246735 -14.56191905 -20.8027415
435 1 -20.8027415 -16.6421932 -16.6421932
436 1 -20.8027415 -14.56191905 -14.56191905
437 1 -18.72246735 -16.6421932 -14.56191905
438 1 -18.72246735 -14.56191905 -16.6421932
439 1 -20.8027415 -16.6421932 -12.4816449
440 1 -20.8027415 -14.56191905 -10.40137075
441 1 -18.72246735 -16.6421932 -10.40137075
442 1 -18.72246735 -14.56191905 -12.4816449
443 1 -20.8027415 -16.6421932 -8.3210966
444 1 -20.8027415 -14.56191905 -6.24082245
445 1 -18.72246735 -16.6421932 -6.24082245
446 1 -18.72246735 -14.56191905 -8.3210966
447 1 -20.8027415 -10.40137075 -31.20411225
448 1 -18.72246735 -12.4816449 -31.20411225
449 1 -20.8027415 -12.4816449 -29.1238381
450 1 -20.8027415 -10.40137075 -27.04356395
451 1 -18.72246735 -12.4816449 -27.04356395
452 1 -18.72246735 -10.40137075 -29.1238381
453 1 -20.8027415 -12.4816449 -24.9632898
454 1 -20.8027415 -10.40137075 -22.88301565
455 1 -18.72246735 -12.4816449 -22.88301565
456 1 -18.72246735 -10.40137075 -24.9632898
457 1 -20.8027415 -12.4816449 -20.8027415
458 1 -20.8027415 -10.40137075 -18.72246735
459 1 -18.72246735 -12.4816449 -18.72246735
460 1 -18.72246735 -10.40137075 -20.8027415
461 1 -20.8027415 -12.4816449 -16.6421932
462 1 -20.8027415 -10.40137075 -14.56191905
463 1 -18.72246735 -12.4816449 -14.56191905
464 1 -18.72246735 -10.40137075 -16.6421932
465 1 -20.8027415 -12.4816449 -12.4816449
466 1 -20.8027415 -10.40137075 -10.40137075
467 1 -18.72246735 -12.4816449 -10.40137075
468 1 -18.72246735 -10.40137075 -12.4816449
469 1 -20.8027415 -12.4816449 -8.3210966
470 1 -18.72246735 -10.40137075 -8.3210966
471 1 -20.8027415 -8.3210966 -29.1238381
472 1 -18.72246735 -8.3210966 -27.04356395
473 1 -20.8027415 -8.3210966 -24.9632898
474 1 -20.8027415 -6.24082245 -22.88301565
475 1 -18.72246735 -8.3210966 -22.88301565
476 1 -18.72246735 -6.24082245 -24.9632898
477 1 -20.8027415 -8.3210966 -20.8027415
478 1 -20.8027415 -6.24082245 -18.72246735
479 1 -18.72246735 -8.3210966 -18.72246735
480 1 -18.72246735 -6.24082245 -20.8027415
481 1 -20.8027415 -8.3210966 -16.6421932
482 1 -20.8027415 -6.24082245 -14.56191905
483 1 -18.72246735 -8.3210966 -14.56191905
484 1 -18.72246735 -6.24082245 -16.6421932
485 1 -20.8027415 -8.3210966 -12.4816449
486 1 -18.72246735 -8.3210966 -10.40137075
487 1 -16.6421932 -31.20411225 -27.04356395
488 1 -16.6421932 -33.2843864 -24.9632898
489 1 -16.6421932 -31.20411225 -22.88301565
490 1 -14.56191905 -33.2843864 -22.88301565
491 1 -14.56191905 -31.20411225 -24.9632898
492 1 -16.6421932 -33.2843864 -20.8027415
493 1 -16.6421932 -31.20411225 -18.72246735
494 1 -14.56191905 -33.2843864 -18.72246735
495 1 -14.56191905 -31.20411225 -20.8027415
496 1 -16.6421932 -33.2843864 -16.6421932
497 1 -16.6421932 -31.20411225 -14.56191905
498 1 -14.56191905 -31.20411225 -16.6421932
499 1 -14.56191905 -31.20411225 -12.4816449
500 1 -16.6421932 -27.04356395 -31.20411225
501 1 -16.6421932 -29.1238381 -29.1238381
502 1 -16.6421932 -27.04356395 -27.04356395
503 1 -14.56191905 -29.1238381 -27.04356395
504 1 -14.56191905 -27.04356395 -29.1238381
505 1 -16.6421932 -29.1238381 -24.9632898
506 1 -16.6421932 -27.04356395 -22.88301565
507 1 -14.56191905 -29.1238381 -22.88301565
508 1 -14.56191905 -27.04356395 -24.9632898
509 1 -16.6421932 -29.1238381 -20.8027415
510 1 -16.6421932 -27.04356395 -18.72246735
511 1 -14.56191905 -29.1238381 -18.72246735
512 1 -14.56191905 -27.04356395 -20.8027415
513 1 -16.6421932 -29.1238381 -16.6421932
514 1 -16.6421932 -27.04356395 -14.56191905
515 1 -14.56191905 -29.1238381 -14.56191905
516 1 -14.56191905 -27.04356395 -16.6421932
517 1 -16.6421932 -29.1238381 -12.4816449
518 1 -16.6421932 -27.04356395 -10.40137075
519 1 -14.56191905 -29.1238381 -10.40137075
520 1 -14.56191905 -27.04356395 -12.4816449
521 1 -14.56191905 -27.04356395 -8.3210966
522 1 -16.6421932 -24.9632898 -33.2843864
523 1 -16.6421932 -22.88301565 -31.20411225
524 1 -14.56191905 -24.9632898 -31.20411225
525 1 -14.56191905 -22.88301565 -33.2843864
526 1 -16.6421932 -24.9632898 -29.1238381
527 1 -16.6421932 -22.88301565 -27.04356395
528 1 -14.56191905 -24.9632898 -27.04356395
529 1 -14.56191905 -22.88301565 -29.1238381
530 1 -16.6421932 -24.9632898 -24.9632898
531 1 -16.6421932 -22.88301565 -22.88301565
532 1 -14.56191905 -24.9632898 -22.88301565
533 1 -14.56191905 -22.88301565 -24.9632898
534 1 -16.6421932 -24.9632898 -20.8027415
535 1 -16.6421932 -22.88301565 -18.72246735
536 1 -14.56191905 -24.9632898 -18.72246735
537 1 -14.56191905 -22.88301565 -20.8027415
538 1 -16.6421932 -24.9632898 -16.6421932
539 1 -16.6421932 -22.88301565 -14.56191905
540 1 -14.56191905 -24.9632898 -14.56191905
541 1 -14.56191905 -22.88301565 -16.6421932
542 1 -16.6421932 -24.9632898 -12.4816449
543 1 -16.6421932 -22.88301565 -10.40137075
544 1 -14.56191905 -24.9632898 -10.40137075
545 1 -14.56191905 -22.88301565 -12.4816449
546 1 -16.6421932 -24.9632898 -8.3210966
547 1 -16.6421932 -22.88301565 -6.24082245
548 1 -14.56191905 -22.88301565 -8.3210966
549 1 -16.6421932 -20.8027415 -33.2843864
550 1 -16.6421932 -18.72246735 -31.20411225
551 1 -14.56191905 -20.8027415 -31.20411225
552 1 -14.56191905 -18.72246735 -33.2843864
553 1 -16.6421932 -20.8027415 -29.1238381
554 1 -16.6421932 -18.72246735 -27.04356395
555 1 -14.56191905 -20.8027415 -27.04356395
556 1 -14.56191905 -18.72246735 -29.1238381
557 1 -16.6421932 -20.8027415 -24.9632898
558 1 -16.6421932 -18.72246735 -22.88301565
559 1 -14.56191905 -20.8027415 -22.88301565
560 1 -14.56191905 -18.72246735 -24.9632898
561 1 -16.6421932 -20.8027415 -20.8027415
562 1 -16.6421932 -18.72246735 -18.72246735
563 1 -14.56191905 -20.8027415 -18.72246735
564 1 -14.56191905 -18.72246735 -20.8027415
565 1 -16.6421932 -20.8027415 -16.6421932
566 1 -16.6421932 -18.72246735 -14.56191905
567 1 -14.56191905 -20.8027415 -14.56191905
568 1 -14.56191905 -18.72246735 -16.6421932
569 1 -16.6421932 -20.8027415 -12.4816449
570 1 -16.6421932 -18.72246735 -10.40137075
571 1 -14.56191905 -20.8027415 -10.40137075
572 1 -14.56191905 -18.72246735 -12.4816449
573 1 -16.6421932 -20.8027415 -8.3210966
574 1 -16.6421932 -18.72246735 -6.24082245
575 1 -14.56191905 -20.8027415 -6.24082245
576 1 -14.56191905 -18.72246735 -8.3210966
577 1 -16.6421932 -16.6421932 -33.2843864
578 1 -16.6421932 -14.56191905 -31.20411225
579 1 -14.56191905 -16.6421932 -31.20411225
580 1 -16.6421932 -16.6421932 -29.1238381
581 1 -16.6421932 -14.56191905 -27.04356395
582 1 -14.56191905 -16.6421932 -27.04356395
583 1 -14.56191905 -14.56191905 -29.1238381
584 1 -16.6421932 -16.6421932 -24.9632898
585 1 -16.6421932 -14.56191905 -22.88301565
586 1 -14.56191905 -16.6421932 -22.88301565
587 1 -14.56191905 -14.56191905 -24.9632898
588 1 -16.6421932 -16.6421932 -20.8027415
589 1 -16.6421932 -14.56191905 -18.72246735
590 1 -14.56191905 -16.6421932 -18.72246735
591 1 -14.56191905 -14.56191905 -20.8027415
592 1 -16.6421932 -16.6421932 -16.6421932
593 1 -16.6421932 -14.56191905 -14.56191905
594 1 -14.56191905 -16.6421932 -14.56191905
595 1 -14.56191905 -14.56191905 -16.6421932
596 1 -16.6421932 -16.6421932 -12.4816449
597 1 -16.6421932 -14.56191905 -10.40137075
598 1 -14.56191905 -16.6421932 -10.40137075
599 1 -14.56191905 -14.56191905 -12.4816449
600 1 -16.6421932 -16.6421932 -8.3210966
601 1 -16.6421932 -14.56191905 -6.24082245
602 1 -14.56191905 -16.6421932 -6.24082245
603 1 -14.56191905 -14.56191905 -8.3210966
604 1 -14.56191905 -12.4816449 -31.20411225
605 1 -16.6421932 -12.4816449 -29.1238381
606 1 -16.6421932 -10.40137075 -27.04356395
607 1 -14.56191905 -12.4816449 -27.04356395
608 1 -14.56191905 -10.40137075 -29.1238381
609 1 -16.6421932 -12.4816449 -24.9632898
610 1 -16.6421932 -10.40137075 -22.88301565
611 1 -14.56191905 -12.4816449 -22.88301565
612 1 -14.56191905 -10.40137075 -24.9632898
613 1 -16.6421932 -12.4816449 -20.8027415
614 1 -16.6421932 -10.40137075 -18.72246735
615 1 -14.56191905 -12.4816449 -18.72246735
616 1 -14.56191905 -10.40137075 -20.8027415
617 1 -16.6421932 -12.4816449 -16.6421932
618 1 -16.6421932 -10.40137075 -14.56191905
619 1 -14.56191905 -12.4816449 -14.56191905
620 1 -14.56191905 -10.40137075 -16.6421932
621 1 -16.6421932 -12.4816449 -12.4816449
622 1 -16.6421932 -10.40137075 -10.40137075
623 1 -14.56191905 -12.4816449 -10.40137075
624 1 -14.56191905 -10.40137075 -12.4816449
625 1 -16.6421932 -12.4816449 -8.3210966
626 1 -16.6421932 -10.40137075 -6.24082245
627 1 -14.56191905 -12.4816449 -6.24082245
628 1 -14.56191905 -10.40137075 -8.3210966
629 1 -14.56191905 -10.40137075 -4.1605483
630 1 -14.56191905 -8.3210966 -27.04356395
631 1 -16.6421932 -8.3210966 -24.9632898
632 1 -16.6421932 -6.24082245 -22.88301565
633 1 -14.56191905 -8.3210966 -22.88301565
634 1 -16.6421932 -8.3210966 -20.8027415
635 1 -16.6421932 -6.24082245 -18.72246735
636 1 -14.56191905 -8.3210966 -18.72246735
637 1 -14.56191905 -6.24082245 -20.8027415
638 1 -16.6421932 -8.3210966 -16.6421932
639 1 -16.6421932 -6.24082245 -14.56191905
640 1 -14.56191905 -8.3210966 -14.56191905
641 1 -14.56191905 -6.24082245 -16.6421932
642 1 -16.6421932 -8.3210966 -12.4816449
643 1 -16.6421932 -6.24082245 -10.40137075
644 1 -14.56191905 -8.3210966 -10.40137075
645 1 -14.56191905 -6.24082245 -12.4816449
646 1 -16.6421932 -8.3210966 -8.3210966
647 1 -14.56191905 -8.3210966 -6.24082245
648 1 -14.56191905 -6.24082245 -8.3210966
649 1 -14.56191905 -6.24082245 -4.1605483
650 1 -14.56191905 -4.1605483 -10.40137075
651 1 -14.56191905 -4.1605483 -6.24082245
652 1 -12.4816449 -31.20411225 -22.88301565
653 1 -12.4816449 -31.20411225 -18.72246735
654 1 -10.40137075 -31.20411225 -20.8027415
655 1 -12.4816449 -31.20411225 -14.56191905
656 1 -12.4816449 -29.1238381 -29.1238381
657 1 -12.4816449 -27.04356395 -27.04356395
658 1 -10.40137075 -29.1238381 -27.04356395
659 1 -10.40137075 -27.04356395 -29.1238381
660 1 -12.4816449 -29.1238381 -24.9632898
661 1 -12.4816449 -27.04356395 -22.88301565
662 1 -10.40137075 -29.1238381 -22.88301565
663 1 -10.40137075 -27.04356395 -24.9632898
664 1 -12.4816449 -29.1238381 -20.8027415
665 1 -12.4816449 -27.04356395 -18.72246735
666 1 -10.40137075 -29.1238381 -18.72246735
667 1 -10.40137075 -27.04356395 -20.8027415
668 1 -12.4816449 -29.1238381 -16.6421932
669 1 -12.4816449 -27.04356395 -14.56191905
670 1 -10.40137075 -29.1238381 -14.56191905
671 1 -10.40137075 -27.04356395 -16.6421932
672 1 -12.4816449 -29.1238381 -12.4816449
673 1 -12.4816449 -27.04356395 -10.40137075
674 1 -10.40137075 -27.04356395 -12.4816449
675 1 -12.4816449 -22.88301565 -31.20411225
676 1 -12.4816449 -24.9632898 -29.1238381
677 1 -12.4816449 -22.88301565 -27.04356395
678 1 -10.40137075 -24.9632898 -27.04356395
679 1 -10.40137075 -22.88301565 -29.1238381
680 1 -12.4816449 -24.9632898 -24.9632898
681 1 -12.4816449 -22.88301565 -22.88301565
682 1 -10.40137075 -24.9632898 -22.88301565
683 1 -10.40137075 -22.88301565 -24.9632898
684 1 -12.4816449 -24.9632898 -20.8027415
685 1 -12.4816449 -22.88301565 -18.72246735
686 1 -10.40137075 -24.9632898 -18.72246735
687 1 -10.40137075 -22.88301565 -20.8027415
688 1 -12.4816449 -24.9632898 -16.6421932
689 1 -12.4816449 -22.88301565 -14.56191905
690 1 -10.40137075 -24.9632898 -14.56191905