# Cluster_Combination Program by NingWang
 1487 atoms
 1 atom types
 -100 100 xlo xhi
 -100 100 ylo yhi
 -100 100 zlo zhi

 Atoms  # atomic

1 1 -27.04356395 -10.40137075 0.0
2 1 -27.04356395 -8.3210966 -2.08027415
3 1 -27.04356395 -8.3210966 2.08027415
4 1 -27.04356395 -6.24082245 0.0
5 1 -27.04356395 -4.1605483 -2.08027415
6 1 -29.1238381 -4.1605483 0.0
7 1 -27.04356395 -4.1605483 2.08027415
8 1 -27.04356395 -2.08027415 0.0
9 1 -27.04356395 0.0 -2.08027415
10 1 -29.1238381 0.0 0.0
11 1 -27.04356395 0.0 2.08027415
12 1 -27.04356395 2.08027415 0.0
13 1 -27.04356395 4.1605483 -2.08027415
14 1 -29.1238381 4.1605483 0.0
15 1 -27.04356395 4.1605483 2.08027415
16 1 -27.04356395 6.24082245 0.0
17 1 -27.04356395 8.3210966 -2.08027415
18 1 -27.04356395 8.3210966 2.08027415
19 1 -27.04356395 10.40137075 0.0
20 1 -22.88301565 -18.72246735 0.0
21 1 -22.88301565 -16.6421932 -2.08027415
22 1 -22.88301565 -16.6421932 2.08027415
23 1 -22.88301565 -14.56191905 0.0
24 1 -24.9632898 -10.40137075 -2.08027415
25 1 -22.88301565 -12.4816449 -2.08027415
26 1 -24.9632898 -12.4816449 0.0
27 1 -24.9632898 -10.40137075 2.08027415
28 1 -22.88301565 -12.4816449 2.08027415
29 1 -22.88301565 -10.40137075 0.0
30 1 -24.9632898 -6.24082245 -2.08027415
31 1 -22.88301565 -8.3210966 -2.08027415
32 1 -22.88301565 -6.24082245 -4.1605483
33 1 -24.9632898 -8.3210966 0.0
34 1 -24.9632898 -6.24082245 2.08027415
35 1 -22.88301565 -8.3210966 2.08027415
36 1 -22.88301565 -6.24082245 0.0
37 1 -22.88301565 -6.24082245 4.1605483
38 1 -24.9632898 -2.08027415 -2.08027415
39 1 -22.88301565 -4.1605483 -2.08027415
40 1 -22.88301565 -2.08027415 -4.1605483
41 1 -24.9632898 -4.1605483 0.0
42 1 -24.9632898 -2.08027415 2.08027415
43 1 -22.88301565 -4.1605483 2.08027415
44 1 -22.88301565 -2.08027415 0.0
45 1 -22.88301565 -2.08027415 4.1605483
46 1 -24.9632898 2.08027415 -2.08027415
47 1 -22.88301565 0.0 -2.08027415
48 1 -22.88301565 2.08027415 -4.1605483
49 1 -24.9632898 0.0 0.0
50 1 -24.9632898 2.08027415 2.08027415
51 1 -22.88301565 0.0 2.08027415
52 1 -22.88301565 2.08027415 0.0
53 1 -22.88301565 2.08027415 4.1605483
54 1 -24.9632898 6.24082245 -2.08027415
55 1 -22.88301565 4.1605483 -2.08027415
56 1 -22.88301565 6.24082245 -4.1605483
57 1 -24.9632898 4.1605483 0.0
58 1 -24.9632898 6.24082245 2.08027415
59 1 -22.88301565 4.1605483 2.08027415
60 1 -22.88301565 6.24082245 0.0
61 1 -22.88301565 6.24082245 4.1605483
62 1 -24.9632898 10.40137075 -2.08027415
63 1 -22.88301565 8.3210966 -2.08027415
64 1 -24.9632898 8.3210966 0.0
65 1 -24.9632898 10.40137075 2.08027415
66 1 -22.88301565 8.3210966 2.08027415
67 1 -22.88301565 10.40137075 0.0
68 1 -22.88301565 12.4816449 -2.08027415
69 1 -24.9632898 12.4816449 0.0
70 1 -22.88301565 12.4816449 2.08027415
71 1 -22.88301565 14.56191905 0.0
72 1 -22.88301565 16.6421932 -2.08027415
73 1 -22.88301565 16.6421932 2.08027415
74 1 -22.88301565 18.72246735 0.0
75 1 -18.72246735 -22.88301565 0.0
76 1 -20.8027415 -18.72246735 -2.08027415
77 1 -18.72246735 -20.8027415 -2.08027415
78 1 -20.8027415 -20.8027415 0.0
79 1 -20.8027415 -18.72246735 2.08027415
80 1 -18.72246735 -20.8027415 2.08027415
81 1 -18.72246735 -18.72246735 0.0
82 1 -20.8027415 -14.56191905 -2.08027415
83 1 -18.72246735 -16.6421932 -2.08027415
84 1 -18.72246735 -14.56191905 -4.1605483
85 1 -20.8027415 -16.6421932 0.0
86 1 -20.8027415 -14.56191905 2.08027415
87 1 -18.72246735 -16.6421932 2.08027415
88 1 -18.72246735 -14.56191905 0.0
89 1 -18.72246735 -14.56191905 4.1605483
90 1 -20.8027415 -10.40137075 -2.08027415
91 1 -18.72246735 -12.4816449 -2.08027415
92 1 -18.72246735 -10.40137075 -4.1605483
93 1 -20.8027415 -12.4816449 0.0
94 1 -20.8027415 -10.40137075 2.08027415
95 1 -18.72246735 -12.4816449 2.08027415
96 1 -18.72246735 -10.40137075 0.0
97 1 -18.72246735 -10.40137075 4.1605483
98 1 -20.8027415 -8.3210966 -4.1605483
99 1 -20.8027415 -6.24082245 -2.08027415
100 1 -18.72246735 -8.3210966 -2.08027415
101 1 -18.72246735 -6.24082245 -4.1605483
102 1 -20.8027415 -8.3210966 0.0
103 1 -20.8027415 -6.24082245 2.08027415
104 1 -18.72246735 -8.3210966 2.08027415
105 1 -18.72246735 -6.24082245 0.0
106 1 -20.8027415 -8.3210966 4.1605483
107 1 -18.72246735 -6.24082245 4.1605483
108 1 -20.8027415 -4.1605483 -4.1605483
109 1 -20.8027415 -2.08027415 -2.08027415
110 1 -18.72246735 -4.1605483 -2.08027415
111 1 -18.72246735 -2.08027415 -4.1605483
112 1 -20.8027415 -4.1605483 0.0
113 1 -20.8027415 -2.08027415 2.08027415
114 1 -18.72246735 -4.1605483 2.08027415
115 1 -18.72246735 -2.08027415 0.0
116 1 -20.8027415 -4.1605483 4.1605483
117 1 -18.72246735 -2.08027415 4.1605483
118 1 -20.8027415 0.0 -4.1605483
119 1 -20.8027415 2.08027415 -2.08027415
120 1 -18.72246735 0.0 -2.08027415
121 1 -18.72246735 2.08027415 -4.1605483
122 1 -20.8027415 0.0 0.0
123 1 -20.8027415 2.08027415 2.08027415
124 1 -18.72246735 0.0 2.08027415
125 1 -18.72246735 2.08027415 0.0
126 1 -20.8027415 0.0 4.1605483
127 1 -18.72246735 2.08027415 4.1605483
128 1 -20.8027415 4.1605483 -4.1605483
129 1 -20.8027415 6.24082245 -2.08027415
130 1 -18.72246735 4.1605483 -2.08027415
131 1 -18.72246735 6.24082245 -4.1605483
132 1 -20.8027415 4.1605483 0.0
133 1 -20.8027415 6.24082245 2.08027415
134 1 -18.72246735 4.1605483 2.08027415
135 1 -18.72246735 6.24082245 0.0
136 1 -20.8027415 4.1605483 4.1605483
137 1 -18.72246735 6.24082245 4.1605483
138 1 -20.8027415 8.3210966 -4.1605483
139 1 -20.8027415 10.40137075 -2.08027415
140 1 -18.72246735 8.3210966 -2.08027415
141 1 -18.72246735 10.40137075 -4.1605483
142 1 -20.8027415 8.3210966 0.0
143 1 -20.8027415 10.40137075 2.08027415
144 1 -18.72246735 8.3210966 2.08027415
145 1 -18.72246735 10.40137075 0.0
146 1 -20.8027415 8.3210966 4.1605483
147 1 -18.72246735 10.40137075 4.1605483
148 1 -20.8027415 14.56191905 -2.08027415
149 1 -18.72246735 12.4816449 -2.08027415
150 1 -18.72246735 14.56191905 -4.1605483
151 1 -20.8027415 12.4816449 0.0
152 1 -20.8027415 14.56191905 2.08027415
153 1 -18.72246735 12.4816449 2.08027415
154 1 -18.72246735 14.56191905 0.0
155 1 -18.72246735 14.56191905 4.1605483
156 1 -20.8027415 18.72246735 -2.08027415
157 1 -18.72246735 16.6421932 -2.08027415
158 1 -20.8027415 16.6421932 0.0
159 1 -20.8027415 18.72246735 2.08027415
160 1 -18.72246735 16.6421932 2.08027415
161 1 -18.72246735 18.72246735 0.0
162 1 -18.72246735 20.8027415 -2.08027415
163 1 -20.8027415 20.8027415 0.0
164 1 -18.72246735 20.8027415 2.08027415
165 1 -18.72246735 22.88301565 0.0
166 1 -16.6421932 -22.88301565 -2.08027415
167 1 -16.6421932 -22.88301565 2.08027415
168 1 -14.56191905 -22.88301565 0.0
169 1 -16.6421932 -18.72246735 -2.08027415
170 1 -14.56191905 -20.8027415 -2.08027415
171 1 -14.56191905 -18.72246735 -4.1605483
172 1 -16.6421932 -20.8027415 0.0
173 1 -16.6421932 -18.72246735 2.08027415
174 1 -14.56191905 -20.8027415 2.08027415
175 1 -14.56191905 -18.72246735 0.0
176 1 -14.56191905 -18.72246735 4.1605483
177 1 -16.6421932 -16.6421932 -4.1605483
178 1 -16.6421932 -14.56191905 -2.08027415
179 1 -14.56191905 -16.6421932 -2.08027415
180 1 -14.56191905 -14.56191905 -4.1605483
181 1 -16.6421932 -16.6421932 0.0
182 1 -16.6421932 -14.56191905 2.08027415
183 1 -14.56191905 -16.6421932 2.08027415
184 1 -14.56191905 -14.56191905 0.0
185 1 -16.6421932 -16.6421932 4.1605483
186 1 -14.56191905 -14.56191905 4.1605483
187 1 -16.6421932 -12.4816449 -4.1605483
188 1 -16.6421932 -10.40137075 -2.08027415
189 1 -14.56191905 -12.4816449 -2.08027415
190 1 -14.56191905 -10.40137075 -4.1605483
191 1 -16.6421932 -12.4816449 0.0
192 1 -16.6421932 -10.40137075 2.08027415
193 1 -14.56191905 -12.4816449 2.08027415
194 1 -14.56191905 -10.40137075 0.0
195 1 -16.6421932 -12.4816449 4.1605483
196 1 -14.56191905 -10.40137075 4.1605483
197 1 -16.6421932 -8.3210966 -4.1605483
198 1 -16.6421932 -6.24082245 -2.08027415
199 1 -14.56191905 -8.3210966 -2.08027415
200 1 -14.56191905 -6.24082245 -4.1605483
201 1 -16.6421932 -8.3210966 0.0
202 1 -16.6421932 -6.24082245 2.08027415
203 1 -14.56191905 -8.3210966 2.08027415
204 1 -14.56191905 -6.24082245 0.0
205 1 -16.6421932 -8.3210966 4.1605483
206 1 -14.56191905 -6.24082245 4.1605483
207 1 -16.6421932 -4.1605483 -4.1605483
208 1 -16.6421932 -2.08027415 -2.08027415
209 1 -14.56191905 -4.1605483 -2.08027415
210 1 -14.56191905 -2.08027415 -4.1605483
211 1 -16.6421932 -4.1605483 0.0
212 1 -16.6421932 -2.08027415 2.08027415
213 1 -14.56191905 -4.1605483 2.08027415
214 1 -14.56191905 -2.08027415 0.0
215 1 -16.6421932 -4.1605483 4.1605483
216 1 -14.56191905 -2.08027415 4.1605483
217 1 -16.6421932 0.0 -4.1605483
218 1 -16.6421932 2.08027415 -2.08027415
219 1 -14.56191905 0.0 -2.08027415
220 1 -14.56191905 2.08027415 -4.1605483
221 1 -16.6421932 0.0 0.0
222 1 -16.6421932 2.08027415 2.08027415
223 1 -14.56191905 0.0 2.08027415
224 1 -14.56191905 2.08027415 0.0
225 1 -16.6421932 0.0 4.1605483
226 1 -14.56191905 2.08027415 4.1605483
227 1 -16.6421932 4.1605483 -4.1605483
228 1 -16.6421932 6.24082245 -2.08027415
229 1 -14.56191905 4.1605483 -2.08027415
230 1 -14.56191905 6.24082245 -4.1605483
231 1 -16.6421932 4.1605483 0.0
232 1 -16.6421932 6.24082245 2.08027415
233 1 -14.56191905 4.1605483 2.08027415
234 1 -14.56191905 6.24082245 0.0
235 1 -16.6421932 4.1605483 4.1605483
236 1 -14.56191905 6.24082245 4.1605483
237 1 -16.6421932 8.3210966 -4.1605483
238 1 -16.6421932 10.40137075 -2.08027415
239 1 -14.56191905 8.3210966 -2.08027415
240 1 -14.56191905 10.40137075 -4.1605483
241 1 -16.6421932 8.3210966 0.0
242 1 -16.6421932 10.40137075 2.08027415
243 1 -14.56191905 8.3210966 2.08027415
244 1 -14.56191905 10.40137075 0.0
245 1 -16.6421932 8.3210966 4.1605483
246 1 -14.56191905 10.40137075 4.1605483
247 1 -16.6421932 12.4816449 -4.1605483
248 1 -16.6421932 14.56191905 -2.08027415
249 1 -14.56191905 12.4816449 -2.08027415
250 1 -14.56191905 14.56191905 -4.1605483
251 1 -16.6421932 12.4816449 0.0
252 1 -16.6421932 14.56191905 2.08027415
253 1 -14.56191905 12.4816449 2.08027415
254 1 -14.56191905 14.56191905 0.0
255 1 -16.6421932 12.4816449 4.1605483
256 1 -14.56191905 14.56191905 4.1605483
257 1 -16.6421932 16.6421932 -4.1605483
258 1 -16.6421932 18.72246735 -2.08027415
259 1 -14.56191905 16.6421932 -2.08027415
260 1 -14.56191905 18.72246735 -4.1605483
261 1 -16.6421932 16.6421932 0.0
262 1 -16.6421932 18.72246735 2.08027415
263 1 -14.56191905 16.6421932 2.08027415
264 1 -14.56191905 18.72246735 0.0
265 1 -16.6421932 16.6421932 4.1605483
266 1 -14.56191905 18.72246735 4.1605483
267 1 -16.6421932 22.88301565 -2.08027415
268 1 -14.56191905 20.8027415 -2.08027415
269 1 -16.6421932 20.8027415 0.0
270 1 -16.6421932 22.88301565 2.08027415
271 1 -14.56191905 20.8027415 2.08027415
272 1 -14.56191905 22.88301565 0.0
273 1 -10.40137075 -27.04356395 0.0
274 1 -12.4816449 -22.88301565 -2.08027415
275 1 -10.40137075 -24.9632898 -2.08027415
276 1 -12.4816449 -24.9632898 0.0
277 1 -12.4816449 -22.88301565 2.08027415
278 1 -10.40137075 -24.9632898 2.08027415
279 1 -10.40137075 -22.88301565 0.0
280 1 -12.4816449 -18.72246735 -2.08027415
281 1 -10.40137075 -20.8027415 -2.08027415
282 1 -10.40137075 -18.72246735 -4.1605483
283 1 -12.4816449 -20.8027415 0.0
284 1 -12.4816449 -18.72246735 2.08027415
285 1 -10.40137075 -20.8027415 2.08027415
286 1 -10.40137075 -18.72246735 0.0
287 1 -10.40137075 -18.72246735 4.1605483
288 1 -12.4816449 -16.6421932 -4.1605483
289 1 -12.4816449 -14.56191905 -2.08027415
290 1 -10.40137075 -16.6421932 -2.08027415
291 1 -10.40137075 -14.56191905 -4.1605483
292 1 -12.4816449 -16.6421932 0.0
293 1 -12.4816449 -14.56191905 2.08027415
294 1 -10.40137075 -16.6421932 2.08027415
295 1 -10.40137075 -14.56191905 0.0
296 1 -12.4816449 -16.6421932 4.1605483
297 1 -10.40137075 -14.56191905 4.1605483
298 1 -12.4816449 -12.4816449 -4.1605483
299 1 -12.4816449 -10.40137075 -2.08027415
300 1 -10.40137075 -12.4816449 -2.08027415
301 1 -10.40137075 -10.40137075 -4.1605483
302 1 -12.4816449 -12.4816449 0.0
303 1 -12.4816449 -10.40137075 2.08027415
304 1 -10.40137075 -12.4816449 2.08027415
305 1 -10.40137075 -10.40137075 0.0
306 1 -12.4816449 -12.4816449 4.1605483
307 1 -10.40137075 -10.40137075 4.1605483
308 1 -10.40137075 -8.3210966 -6.24082245
309 1 -12.4816449 -8.3210966 -4.1605483
310 1 -12.4816449 -6.24082245 -2.08027415
311 1 -10.40137075 -8.3210966 -2.08027415
312 1 -10.40137075 -6.24082245 -4.1605483
313 1 -12.4816449 -8.3210966 0.0
314 1 -12.4816449 -6.24082245 2.08027415
315 1 -10.40137075 -8.3210966 2.08027415
316 1 -10.40137075 -6.24082245 0.0
317 1 -12.4816449 -8.3210966 4.1605483
318 1 -10.40137075 -8.3210966 6.24082245
319 1 -10.40137075 -6.24082245 4.1605483
320 1 -12.4816449 -2.08027415 -6.24082245
321 1 -10.40137075 -4.1605483 -6.24082245
322 1 -12.4816449 -4.1605483 -4.1605483
323 1 -12.4816449 -2.08027415 -2.08027415
324 1 -10.40137075 -4.1605483 -2.08027415
325 1 -10.40137075 -2.08027415 -4.1605483
326 1 -12.4816449 -4.1605483 0.0
327 1 -12.4816449 -2.08027415 2.08027415
328 1 -10.40137075 -4.1605483 2.08027415
329 1 -10.40137075 -2.08027415 0.0
330 1 -12.4816449 -4.1605483 4.1605483
331 1 -12.4816449 -2.08027415 6.24082245
332 1 -10.40137075 -4.1605483 6.24082245
333 1 -10.40137075 -2.08027415 4.1605483
334 1 -12.4816449 2.08027415 -6.24082245
335 1 -10.40137075 0.0 -6.24082245
336 1 -12.4816449 0.0 -4.1605483
337 1 -12.4816449 2.08027415 -2.08027415
338 1 -10.40137075 0.0 -2.08027415
339 1 -10.40137075 2.08027415 -4.1605483
340 1 -12.4816449 0.0 0.0
341 1 -12.4816449 2.08027415 2.08027415
342 1 -10.40137075 0.0 2.08027415
343 1 -10.40137075 2.08027415 0.0
344 1 -12.4816449 0.0 4.1605483
345 1 -12.4816449 2.08027415 6.24082245
346 1 -10.40137075 0.0 6.24082245
347 1 -10.40137075 2.08027415 4.1605483
348 1 -10.40137075 4.1605483 -6.24082245
349 1 -12.4816449 4.1605483 -4.1605483
350 1 -12.4816449 6.24082245 -2.08027415
351 1 -10.40137075 4.1605483 -2.08027415
352 1 -10.40137075 6.24082245 -4.1605483
353 1 -12.4816449 4.1605483 0.0
354 1 -12.4816449 6.24082245 2.08027415
355 1 -10.40137075 4.1605483 2.08027415
356 1 -10.40137075 6.24082245 0.0
357 1 -12.4816449 4.1605483 4.1605483
358 1 -10.40137075 4.1605483 6.24082245
359 1 -10.40137075 6.24082245 4.1605483
360 1 -10.40137075 8.3210966 -6.24082245
361 1 -12.4816449 8.3210966 -4.1605483
362 1 -12.4816449 10.40137075 -2.08027415
363 1 -10.40137075 8.3210966 -2.08027415
364 1 -10.40137075 10.40137075 -4.1605483
365 1 -12.4816449 8.3210966 0.0
366 1 -12.4816449 10.40137075 2.08027415
367 1 -10.40137075 8.3210966 2.08027415
368 1 -10.40137075 10.40137075 0.0
369 1 -12.4816449 8.3210966 4.1605483
370 1 -10.40137075 8.3210966 6.24082245
371 1 -10.40137075 10.40137075 4.1605483
372 1 -12.4816449 12.4816449 -4.1605483
373 1 -12.4816449 14.56191905 -2.08027415
374 1 -10.40137075 12.4816449 -2.08027415
375 1 -10.40137075 14.56191905 -4.1605483
376 1 -12.4816449 12.4816449 0.0
377 1 -12.4816449 14.56191905 2.08027415
378 1 -10.40137075 12.4816449 2.08027415
379 1 -10.40137075 14.56191905 0.0
380 1 -12.4816449 12.4816449 4.1605483
381 1 -10.40137075 14.56191905 4.1605483
382 1 -12.4816449 16.6421932 -4.1605483
383 1 -12.4816449 18.72246735 -2.08027415
384 1 -10.40137075 16.6421932 -2.08027415
385 1 -10.40137075 18.72246735 -4.1605483
386 1 -12.4816449 16.6421932 0.0
387 1 -12.4816449 18.72246735 2.08027415
388 1 -10.40137075 16.6421932 2.08027415
389 1 -10.40137075 18.72246735 0.0
390 1 -12.4816449 16.6421932 4.1605483
391 1 -10.40137075 18.72246735 4.1605483
392 1 -12.4816449 22.88301565 -2.08027415
393 1 -10.40137075 20.8027415 -2.08027415
394 1 -12.4816449 20.8027415 0.0
395 1 -12.4816449 22.88301565 2.08027415
396 1 -10.40137075 20.8027415 2.08027415
397 1 -10.40137075 22.88301565 0.0
398 1 -10.40137075 24.9632898 -2.08027415
399 1 -12.4816449 24.9632898 0.0
400 1 -10.40137075 24.9632898 2.08027415
401 1 -10.40137075 27.04356395 0.0
402 1 -8.3210966 -27.04356395 -2.08027415
403 1 -8.3210966 -27.04356395 2.08027415
404 1 -6.24082245 -27.04356395 0.0
405 1 -8.3210966 -22.88301565 -2.08027415
406 1 -6.24082245 -24.9632898 -2.08027415
407 1 -6.24082245 -22.88301565 -4.1605483
408 1 -8.3210966 -24.9632898 0.0
409 1 -8.3210966 -22.88301565 2.08027415
410 1 -6.24082245 -24.9632898 2.08027415
411 1 -6.24082245 -22.88301565 0.0
412 1 -6.24082245 -22.88301565 4.1605483
413 1 -8.3210966 -20.8027415 -4.1605483
414 1 -8.3210966 -18.72246735 -2.08027415
415 1 -6.24082245 -20.8027415 -2.08027415
416 1 -6.24082245 -18.72246735 -4.1605483
417 1 -8.3210966 -20.8027415 0.0
418 1 -8.3210966 -18.72246735 2.08027415
419 1 -6.24082245 -20.8027415 2.08027415
420 1 -6.24082245 -18.72246735 0.0
421 1 -8.3210966 -20.8027415 4.1605483
422 1 -6.24082245 -18.72246735 4.1605483
423 1 -8.3210966 -16.6421932 -4.1605483
424 1 -8.3210966 -14.56191905 -2.08027415
425 1 -6.24082245 -16.6421932 -2.08027415
426 1 -6.24082245 -14.56191905 -4.1605483
427 1 -8.3210966 -16.6421932 0.0
428 1 -8.3210966 -14.56191905 2.08027415
429 1 -6.24082245 -16.6421932 2.08027415
430 1 -6.24082245 -14.56191905 0.0
431 1 -8.3210966 -16.6421932 4.1605483
432 1 -6.24082245 -14.56191905 4.1605483
433 1 -8.3210966 -10.40137075 -6.24082245
434 1 -8.3210966 -12.4816449 -4.1605483
435 1 -8.3210966 -10.40137075 -2.08027415
436 1 -6.24082245 -12.4816449 -2.08027415
437 1 -6.24082245 -10.40137075 -4.1605483
438 1 -8.3210966 -12.4816449 0.0
439 1 -8.3210966 -10.40137075 2.08027415
440 1 -6.24082245 -12.4816449 2.08027415
441 1 -6.24082245 -10.40137075 0.0
442 1 -8.3210966 -12.4816449 4.1605483
443 1 -8.3210966 -10.40137075 6.24082245
444 1 -6.24082245 -10.40137075 4.1605483
445 1 -8.3210966 -6.24082245 -6.24082245
446 1 -6.24082245 -8.3210966 -6.24082245
447 1 -8.3210966 -8.3210966 -4.1605483
448 1 -8.3210966 -6.24082245 -2.08027415
449 1 -6.24082245 -8.3210966 -2.08027415
450 1 -6.24082245 -6.24082245 -4.1605483
451 1 -8.3210966 -8.3210966 0.0
452 1 -8.3210966 -6.24082245 2.08027415
453 1 -6.24082245 -8.3210966 2.08027415
454 1 -6.24082245 -6.24082245 0.0
455 1 -8.3210966 -8.3210966 4.1605483
456 1 -8.3210966 -6.24082245 6.24082245
457 1 -6.24082245 -8.3210966 6.24082245
458 1 -6.24082245 -6.24082245 4.1605483
459 1 -8.3210966 -2.08027415 -6.24082245
460 1 -6.24082245 -4.1605483 -6.24082245
461 1 -8.3210966 -4.1605483 -4.1605483
462 1 -8.3210966 -2.08027415 -2.08027415
463 1 -6.24082245 -4.1605483 -2.08027415
464 1 -6.24082245 -2.08027415 -4.1605483
465 1 -8.3210966 -4.1605483 0.0
466 1 -8.3210966 -2.08027415 2.08027415
467 1 -6.24082245 -4.1605483 2.08027415
468 1 -6.24082245 -2.08027415 0.0
469 1 -8.3210966 -4.1605483 4.1605483
470 1 -8.3210966 -2.08027415 6.24082245
471 1 -6.24082245 -4.1605483 6.24082245
472 1 -6.24082245 -2.08027415 4.1605483
473 1 -8.3210966 2.08027415 -6.24082245
474 1 -6.24082245 0.0 -6.24082245
475 1 -8.3210966 0.0 -4.1605483
476 1 -8.3210966 2.08027415 -2.08027415
477 1 -6.24082245 0.0 -2.08027415
478 1 -6.24082245 2.08027415 -4.1605483
479 1 -8.3210966 0.0 0.0
480 1 -8.3210966 2.08027415 2.08027415
481 1 -6.24082245 0.0 2.08027415
482 1 -6.24082245 2.08027415 0.0
483 1 -8.3210966 0.0 4.1605483
484 1 -8.3210966 2.08027415 6.24082245
485 1 -6.24082245 0.0 6.24082245
486 1 -6.24082245 2.08027415 4.1605483
487 1 -8.3210966 6.24082245 -6.24082245
488 1 -6.24082245 4.1605483 -6.24082245
489 1 -8.3210966 4.1605483 -4.1605483
490 1 -8.3210966 6.24082245 -2.08027415
491 1 -6.24082245 4.1605483 -2.08027415
492 1 -6.24082245 6.24082245 -4.1605483
493 1 -8.3210966 4.1605483 0.0
494 1 -8.3210966 6.24082245 2.08027415
495 1 -6.24082245 4.1605483 2.08027415
496 1 -6.24082245 6.24082245 0.0
497 1 -8.3210966 4.1605483 4.1605483
498 1 -8.3210966 6.24082245 6.24082245
499 1 -6.24082245 4.1605483 6.24082245
500 1 -6.24082245 6.24082245 4.1605483
501 1 -8.3210966 10.40137075 -6.24082245
502 1 -6.24082245 8.3210966 -6.24082245
503 1 -8.3210966 8.3210966 -4.1605483
504 1 -8.3210966 10.40137075 -2.08027415
505 1 -6.24082245 8.3210966 -2.08027415
506 1 -6.24082245 10.40137075 -4.1605483
507 1 -8.3210966 8.3210966 0.0
508 1 -8.3210966 10.40137075 2.08027415
509 1 -6.24082245 8.3210966 2.08027415
510 1 -6.24082245 10.40137075 0.0
511 1 -8.3210966 8.3210966 4.1605483
512 1 -8.3210966 10.40137075 6.24082245
513 1 -6.24082245 8.3210966 6.24082245
514 1 -6.24082245 10.40137075 4.1605483
515 1 -8.3210966 12.4816449 -4.1605483
516 1 -8.3210966 14.56191905 -2.08027415
517 1 -6.24082245 12.4816449 -2.08027415
518 1 -6.24082245 14.56191905 -4.1605483
519 1 -8.3210966 12.4816449 0.0
520 1 -8.3210966 14.56191905 2.08027415
521 1 -6.24082245 12.4816449 2.08027415
522 1 -6.24082245 14.56191905 0.0
523 1 -8.3210966 12.4816449 4.1605483
524 1 -6.24082245 14.56191905 4.1605483
525 1 -8.3210966 16.6421932 -4.1605483
526 1 -8.3210966 18.72246735 -2.08027415
527 1 -6.24082245 16.6421932 -2.08027415
528 1 -6.24082245 18.72246735 -4.1605483
529 1 -8.3210966 16.6421932 0.0
530 1 -8.3210966 18.72246735 2.08027415
531 1 -6.24082245 16.6421932 2.08027415
532 1 -6.24082245 18.72246735 0.0
533 1 -8.3210966 16.6421932 4.1605483
534 1 -6.24082245 18.72246735 4.1605483
535 1 -8.3210966 20.8027415 -4.1605483
536 1 -8.3210966 22.88301565 -2.08027415
537 1 -6.24082245 20.8027415 -2.08027415
538 1 -6.24082245 22.88301565 -4.1605483
539 1 -8.3210966 20.8027415 0.0
540 1 -8.3210966 22.88301565 2.08027415
541 1 -6.24082245 20.8027415 2.08027415
542 1 -6.24082245 22.88301565 0.0
543 1 -8.3210966 20.8027415 4.1605483
544 1 -6.24082245 22.88301565 4.1605483
545 1 -8.3210966 27.04356395 -2.08027415
546 1 -6.24082245 24.9632898 -2.08027415
547 1 -8.3210966 24.9632898 0.0
548 1 -8.3210966 27.04356395 2.08027415
549 1 -6.24082245 24.9632898 2.08027415
550 1 -6.24082245 27.04356395 0.0
551 1 -4.1605483 -27.04356395 -2.08027415
552 1 -4.1605483 -29.1238381 0.0
553 1 -4.1605483 -27.04356395 2.08027415
554 1 -2.08027415 -27.04356395 0.0
555 1 -4.1605483 -22.88301565 -2.08027415
556 1 -2.08027415 -24.9632898 -2.08027415
557 1 -2.08027415 -22.88301565 -4.1605483
558 1 -4.1605483 -24.9632898 0.0
559 1 -4.1605483 -22.88301565 2.08027415
560 1 -2.08027415 -24.9632898 2.08027415
561 1 -2.08027415 -22.88301565 0.0
562 1 -2.08027415 -22.88301565 4.1605483
563 1 -4.1605483 -20.8027415 -4.1605483
564 1 -4.1605483 -18.72246735 -2.08027415
565 1 -2.08027415 -20.8027415 -2.08027415
566 1 -2.08027415 -18.72246735 -4.1605483
567 1 -4.1605483 -20.8027415 0.0
568 1 -4.1605483 -18.72246735 2.08027415
569 1 -2.08027415 -20.8027415 2.08027415
570 1 -2.08027415 -18.72246735 0.0
571 1 -4.1605483 -20.8027415 4.1605483
572 1 -2.08027415 -18.72246735 4.1605483
573 1 -4.1605483 -16.6421932 -4.1605483
574 1 -4.1605483 -14.56191905 -2.08027415
575 1 -2.08027415 -16.6421932 -2.08027415
576 1 -2.08027415 -14.56191905 -4.1605483
577 1 -4.1605483 -16.6421932 0.0
578 1 -4.1605483 -14.56191905 2.08027415
579 1 -2.08027415 -16.6421932 2.08027415
580 1 -2.08027415 -14.56191905 0.0
581 1 -4.1605483 -16.6421932 4.1605483
582 1 -2.08027415 -14.56191905 4.1605483
583 1 -4.1605483 -10.40137075 -6.24082245
584 1 -2.08027415 -12.4816449 -6.24082245
585 1 -4.1605483 -12.4816449 -4.1605483
586 1 -4.1605483 -10.40137075 -2.08027415
587 1 -2.08027415 -12.4816449 -2.08027415
588 1 -2.08027415 -10.40137075 -4.1605483
589 1 -4.1605483 -12.4816449 0.0
590 1 -4.1605483 -10.40137075 2.08027415
591 1 -2.08027415 -12.4816449 2.08027415
592 1 -2.08027415 -10.40137075 0.0
593 1 -4.1605483 -12.4816449 4.1605483
594 1 -4.1605483 -10.40137075 6.24082245
595 1 -2.08027415 -12.4816449 6.24082245
596 1 -2.08027415 -10.40137075 4.1605483
597 1 -4.1605483 -6.24082245 -6.24082245
598 1 -2.08027415 -8.3210966 -6.24082245
599 1 -4.1605483 -8.3210966 -4.1605483
600 1 -4.1605483 -6.24082245 -2.08027415
601 1 -2.08027415 -8.3210966 -2.08027415
602 1 -2.08027415 -6.24082245 -4.1605483
603 1 -4.1605483 -8.3210966 0.0
604 1 -4.1605483 -6.24082245 2.08027415
605 1 -2.08027415 -8.3210966 2.08027415
606 1 -2.08027415 -6.24082245 0.0
607 1 -4.1605483 -8.3210966 4.1605483
608 1 -4.1605483 -6.24082245 6.24082245
609 1 -2.08027415 -8.3210966 6.24082245
610 1 -2.08027415 -6.24082245 4.1605483
611 1 -4.1605483 -2.08027415 -6.24082245
612 1 -2.08027415 -4.1605483 -6.24082245
613 1 -4.1605483 -4.1605483 -4.1605483
614 1 -4.1605483 -2.08027415 -2.08027415
615 1 -2.08027415 -4.1605483 -2.08027415
616 1 -2.08027415 -2.08027415 -4.1605483
617 1 -4.1605483 -4.1605483 0.0
618 1 -4.1605483 -2.08027415 2.08027415
619 1 -2.08027415 -4.1605483 2.08027415
620 1 -2.08027415 -2.08027415 0.0
621 1 -4.1605483 -4.1605483 4.1605483
622 1 -4.1605483 -2.08027415 6.24082245
623 1 -2.08027415 -4.1605483 6.24082245
624 1 -2.08027415 -2.08027415 4.1605483
625 1 -4.1605483 2.08027415 -6.24082245
626 1 -2.08027415 0.0 -6.24082245
627 1 -4.1605483 0.0 -4.1605483
628 1 -4.1605483 2.08027415 -2.08027415
629 1 -2.08027415 0.0 -2.08027415
630 1 -2.08027415 2.08027415 -4.1605483
631 1 -4.1605483 0.0 0.0
632 1 -4.1605483 2.08027415 2.08027415
633 1 -2.08027415 0.0 2.08027415
634 1 -2.08027415 2.08027415 0.0
635 1 -4.1605483 0.0 4.1605483
636 1 -4.1605483 2.08027415 6.24082245
637 1 -2.08027415 0.0 6.24082245
638 1 -2.08027415 2.08027415 4.1605483
639 1 -4.1605483 6.24082245 -6.24082245
640 1 -2.08027415 4.1605483 -6.24082245
641 1 -4.1605483 4.1605483 -4.1605483
642 1 -4.1605483 6.24082245 -2.08027415
643 1 -2.08027415 4.1605483 -2.08027415
644 1 -2.08027415 6.24082245 -4.1605483
645 1 -4.1605483 4.1605483 0.0
646 1 -4.1605483 6.24082245 2.08027415
647 1 -2.08027415 4.1605483 2.08027415
648 1 -2.08027415 6.24082245 0.0
649 1 -4.1605483 4.1605483 4.1605483
650 1 -4.1605483 6.24082245 6.24082245
651 1 -2.08027415 4.1605483 6.24082245
652 1 -2.08027415 6.24082245 4.1605483
653 1 -4.1605483 10.40137075 -6.24082245
654 1 -2.08027415 8.3210966 -6.24082245
655 1 -4.1605483 8.3210966 -4.1605483
656 1 -4.1605483 10.40137075 -2.08027415
657 1 -2.08027415 8.3210966 -2.08027415
658 1 -2.08027415 10.40137075 -4.1605483
659 1 -4.1605483 8.3210966 0.0
660 1 -4.1605483 10.40137075 2.08027415
661 1 -2.08027415 8.3210966 2.08027415
662 1 -2.08027415 10.40137075 0.0
663 1 -4.1605483 8.3210966 4.1605483
664 1 -4.1605483 10.40137075 6.24082245
665 1 -2.08027415 8.3210966 6.24082245
666 1 -2.08027415 10.40137075 4.1605483
667 1 -2.08027415 12.4816449 -6.24082245
668 1 -4.1605483 12.4816449 -4.1605483
669 1 -4.1605483 14.56191905 -2.08027415
670 1 -2.08027415 12.4816449 -2.08027415
671 1 -2.08027415 14.56191905 -4.1605483
672 1 -4.1605483 12.4816449 0.0
673 1 -4.1605483 14.56191905 2.08027415
674 1 -2.08027415 12.4816449 2.08027415
675 1 -2.08027415 14.56191905 0.0
676 1 -4.1605483 12.4816449 4.1605483
677 1 -2.08027415 12.4816449 6.24082245
678 1 -2.08027415 14.56191905 4.1605483
679 1 -4.1605483 16.6421932 -4.1605483
680 1 -4.1605483 18.72246735 -2.08027415
681 1 -2.08027415 16.6421932 -2.08027415
682 1 -2.08027415 18.72246735 -4.1605483
683 1 -4.1605483 16.6421932 0.0
684 1 -4.1605483 18.72246735 2.08027415
685 1 -2.08027415 16.6421932 2.08027415
686 1 -2.08027415 18.72246735 0.0
687 1 -4.1605483 16.6421932 4.1605483
688 1 -2.08027415 18.72246735 4.1605483
689 1 -4.1605483 20.8027415 -4.1605483
690 1 -4.1605483 22.88301565 -2.08027415
691 1 -2.08027415 20.8027415 -2.08027415
692 1 -2.08027415 22.88301565 -4.1605483
693 1 -4.1605483 20.8027415 0.0
694 1 -4.1605483 22.88301565 2.08027415
695 1 -2.08027415 20.8027415 2.08027415
696 1 -2.08027415 22.88301565 0.0
697 1 -4.1605483 20.8027415 4.1605483
698 1 -2.08027415 22.88301565 4.1605483
699 1 -4.1605483 27.04356395 -2.08027415
700 1 -2.08027415 24.9632898 -2.08027415
701 1 -4.1605483 24.9632898 0.0
702 1 -4.1605483 27.04356395 2.08027415
703 1 -2.08027415 24.9632898 2.08027415
704 1 -2.08027415 27.04356395 0.0
705 1 -4.1605483 29.1238381 0.0
706 1 0.0 -27.04356395 -2.08027415
707 1 0.0 -29.1238381 0.0
708 1 0.0 -27.04356395 2.08027415
709 1 2.08027415 -27.04356395 0.0
710 1 0.0 -22.88301565 -2.08027415
711 1 2.08027415 -24.9632898 -2.08027415
712 1 2.08027415 -22.88301565 -4.1605483
713 1 0.0 -24.9632898 0.0
714 1 0.0 -22.88301565 2.08027415
715 1 2.08027415 -24.9632898 2.08027415
716 1 2.08027415 -22.88301565 0.0
717 1 2.08027415 -22.88301565 4.1605483
718 1 0.0 -20.8027415 -4.1605483
719 1 0.0 -18.72246735 -2.08027415
720 1 2.08027415 -20.8027415 -2.08027415
721 1 2.08027415 -18.72246735 -4.1605483
722 1 0.0 -20.8027415 0.0
723 1 0.0 -18.72246735 2.08027415
724 1 2.08027415 -20.8027415 2.08027415
725 1 2.08027415 -18.72246735 0.0
726 1 0.0 -20.8027415 4.1605483
727 1 2.08027415 -18.72246735 4.1605483
728 1 0.0 -16.6421932 -4.1605483
729 1 0.0 -14.56191905 -2.08027415
730 1 2.08027415 -16.6421932 -2.08027415
731 1 2.08027415 -14.56191905 -4.1605483
732 1 0.0 -16.6421932 0.0
733 1 0.0 -14.56191905 2.08027415
734 1 2.08027415 -16.6421932 2.08027415
735 1 2.08027415 -14.56191905 0.0
736 1 0.0 -16.6421932 4.1605483
737 1 2.08027415 -14.56191905 4.1605483
738 1 0.0 -10.40137075 -6.24082245
739 1 2.08027415 -12.4816449 -6.24082245
740 1 0.0 -12.4816449 -4.1605483
741 1 0.0 -10.40137075 -2.08027415
742 1 2.08027415 -12.4816449 -2.08027415
743 1 2.08027415 -10.40137075 -4.1605483
744 1 0.0 -12.4816449 0.0
745 1 0.0 -10.40137075 2.08027415
746 1 2.08027415 -12.4816449 2.08027415
747 1 2.08027415 -10.40137075 0.0
748 1 0.0 -12.4816449 4.1605483
749 1 0.0 -10.40137075 6.24082245
750 1 2.08027415 -12.4816449 6.24082245
751 1 2.08027415 -10.40137075 4.1605483
752 1 0.0 -6.24082245 -6.24082245
753 1 2.08027415 -8.3210966 -6.24082245
754 1 0.0 -8.3210966 -4.1605483
755 1 0.0 -6.24082245 -2.08027415
756 1 2.08027415 -8.3210966 -2.08027415
757 1 2.08027415 -6.24082245 -4.1605483
758 1 0.0 -8.3210966 0.0
759 1 0.0 -6.24082245 2.08027415
760 1 2.08027415 -8.3210966 2.08027415
761 1 2.08027415 -6.24082245 0.0
762 1 0.0 -8.3210966 4.1605483
763 1 0.0 -6.24082245 6.24082245
764 1 2.08027415 -8.3210966 6.24082245
765 1 2.08027415 -6.24082245 4.1605483
766 1 0.0 -2.08027415 -6.24082245
767 1 2.08027415 -4.1605483 -6.24082245
768 1 0.0 -4.1605483 -4.1605483
769 1 0.0 -2.08027415 -2.08027415
770 1 2.08027415 -4.1605483 -2.08027415
771 1 2.08027415 -2.08027415 -4.1605483
772 1 0.0 -4.1605483 0.0
773 1 0.0 -2.08027415 2.08027415
774 1 2.08027415 -4.1605483 2.08027415
775 1 2.08027415 -2.08027415 0.0
776 1 0.0 -4.1605483 4.1605483
777 1 0.0 -2.08027415 6.24082245