# Cluster_Combination Program by NingWang
 1567 atoms
 1 atom types
 -100 100 xlo xhi
 -100 100 ylo yhi
 -100 100 zlo zhi

 Atoms  # atomic

1 1 -14.56191905 -2.08027415 -4.1605483
2 1 -14.56191905 -2.08027415 0.0
3 1 -14.56191905 -2.08027415 4.1605483
4 1 -14.56191905 0.0 -6.24082245
5 1 -14.56191905 0.0 -2.08027415
6 1 -14.56191905 2.08027415 -4.1605483
7 1 -14.56191905 0.0 2.08027415
8 1 -14.56191905 2.08027415 0.0
9 1 -14.56191905 0.0 6.24082245
10 1 -14.56191905 2.08027415 4.1605483
11 1 -10.40137075 -10.40137075 -4.1605483
12 1 -10.40137075 -10.40137075 0.0
13 1 -10.40137075 -10.40137075 4.1605483
14 1 -10.40137075 -6.24082245 -16.6421932
15 1 -12.4816449 -6.24082245 -10.40137075
16 1 -10.40137075 -8.3210966 -10.40137075
17 1 -10.40137075 -6.24082245 -12.4816449
18 1 -12.4816449 -6.24082245 -6.24082245
19 1 -10.40137075 -8.3210966 -6.24082245
20 1 -10.40137075 -6.24082245 -8.3210966
21 1 -12.4816449 -6.24082245 -2.08027415
22 1 -10.40137075 -8.3210966 -2.08027415
23 1 -10.40137075 -6.24082245 -4.1605483
24 1 -12.4816449 -6.24082245 2.08027415
25 1 -10.40137075 -8.3210966 2.08027415
26 1 -10.40137075 -6.24082245 0.0
27 1 -12.4816449 -6.24082245 6.24082245
28 1 -10.40137075 -8.3210966 6.24082245
29 1 -10.40137075 -6.24082245 4.1605483
30 1 -12.4816449 -6.24082245 10.40137075
31 1 -10.40137075 -8.3210966 10.40137075
32 1 -10.40137075 -6.24082245 8.3210966
33 1 -10.40137075 -6.24082245 12.4816449
34 1 -10.40137075 -6.24082245 16.6421932
35 1 -10.40137075 -4.1605483 -18.72246735
36 1 -10.40137075 -2.08027415 -20.8027415
37 1 -12.4816449 -2.08027415 -14.56191905
38 1 -10.40137075 -4.1605483 -14.56191905
39 1 -10.40137075 -2.08027415 -16.6421932
40 1 -12.4816449 -4.1605483 -12.4816449
41 1 -12.4816449 -2.08027415 -10.40137075
42 1 -10.40137075 -4.1605483 -10.40137075
43 1 -10.40137075 -2.08027415 -12.4816449
44 1 -12.4816449 -4.1605483 -8.3210966
45 1 -12.4816449 -2.08027415 -6.24082245
46 1 -10.40137075 -4.1605483 -6.24082245
47 1 -10.40137075 -2.08027415 -8.3210966
48 1 -12.4816449 -4.1605483 -4.1605483
49 1 -12.4816449 -2.08027415 -2.08027415
50 1 -10.40137075 -4.1605483 -2.08027415
51 1 -10.40137075 -2.08027415 -4.1605483
52 1 -12.4816449 -4.1605483 0.0
53 1 -12.4816449 -2.08027415 2.08027415
54 1 -10.40137075 -4.1605483 2.08027415
55 1 -10.40137075 -2.08027415 0.0
56 1 -12.4816449 -4.1605483 4.1605483
57 1 -12.4816449 -2.08027415 6.24082245
58 1 -10.40137075 -4.1605483 6.24082245
59 1 -10.40137075 -2.08027415 4.1605483
60 1 -12.4816449 -4.1605483 8.3210966
61 1 -12.4816449 -2.08027415 10.40137075
62 1 -10.40137075 -4.1605483 10.40137075
63 1 -10.40137075 -2.08027415 8.3210966
64 1 -12.4816449 -4.1605483 12.4816449
65 1 -12.4816449 -2.08027415 14.56191905
66 1 -10.40137075 -4.1605483 14.56191905
67 1 -10.40137075 -2.08027415 12.4816449
68 1 -10.40137075 -4.1605483 18.72246735
69 1 -10.40137075 -2.08027415 16.6421932
70 1 -10.40137075 -2.08027415 20.8027415
71 1 -10.40137075 0.0 -18.72246735
72 1 -10.40137075 2.08027415 -20.8027415
73 1 -12.4816449 2.08027415 -14.56191905
74 1 -10.40137075 0.0 -14.56191905
75 1 -10.40137075 2.08027415 -16.6421932
76 1 -12.4816449 0.0 -12.4816449
77 1 -12.4816449 2.08027415 -10.40137075
78 1 -10.40137075 0.0 -10.40137075
79 1 -10.40137075 2.08027415 -12.4816449
80 1 -12.4816449 0.0 -8.3210966
81 1 -12.4816449 2.08027415 -6.24082245
82 1 -10.40137075 0.0 -6.24082245
83 1 -10.40137075 2.08027415 -8.3210966
84 1 -12.4816449 0.0 -4.1605483
85 1 -12.4816449 2.08027415 -2.08027415
86 1 -10.40137075 0.0 -2.08027415
87 1 -10.40137075 2.08027415 -4.1605483
88 1 -12.4816449 0.0 0.0
89 1 -12.4816449 2.08027415 2.08027415
90 1 -10.40137075 0.0 2.08027415
91 1 -10.40137075 2.08027415 0.0
92 1 -12.4816449 0.0 4.1605483
93 1 -12.4816449 2.08027415 6.24082245
94 1 -10.40137075 0.0 6.24082245
95 1 -10.40137075 2.08027415 4.1605483
96 1 -12.4816449 0.0 8.3210966
97 1 -12.4816449 2.08027415 10.40137075
98 1 -10.40137075 0.0 10.40137075
99 1 -10.40137075 2.08027415 8.3210966
100 1 -12.4816449 0.0 12.4816449
101 1 -12.4816449 2.08027415 14.56191905
102 1 -10.40137075 0.0 14.56191905
103 1 -10.40137075 2.08027415 12.4816449
104 1 -10.40137075 0.0 18.72246735
105 1 -10.40137075 2.08027415 16.6421932
106 1 -10.40137075 2.08027415 20.8027415
107 1 -10.40137075 4.1605483 -18.72246735
108 1 -10.40137075 4.1605483 -14.56191905
109 1 -10.40137075 6.24082245 -16.6421932
110 1 -12.4816449 4.1605483 -12.4816449
111 1 -12.4816449 6.24082245 -10.40137075
112 1 -10.40137075 4.1605483 -10.40137075
113 1 -10.40137075 6.24082245 -12.4816449
114 1 -12.4816449 4.1605483 -8.3210966
115 1 -12.4816449 6.24082245 -6.24082245
116 1 -10.40137075 4.1605483 -6.24082245
117 1 -10.40137075 6.24082245 -8.3210966
118 1 -12.4816449 4.1605483 -4.1605483
119 1 -12.4816449 6.24082245 -2.08027415
120 1 -10.40137075 4.1605483 -2.08027415
121 1 -10.40137075 6.24082245 -4.1605483
122 1 -12.4816449 4.1605483 0.0
123 1 -12.4816449 6.24082245 2.08027415
124 1 -10.40137075 4.1605483 2.08027415
125 1 -10.40137075 6.24082245 0.0
126 1 -12.4816449 4.1605483 4.1605483
127 1 -12.4816449 6.24082245 6.24082245
128 1 -10.40137075 4.1605483 6.24082245
129 1 -10.40137075 6.24082245 4.1605483
130 1 -12.4816449 4.1605483 8.3210966
131 1 -12.4816449 6.24082245 10.40137075
132 1 -10.40137075 4.1605483 10.40137075
133 1 -10.40137075 6.24082245 8.3210966
134 1 -12.4816449 4.1605483 12.4816449
135 1 -10.40137075 4.1605483 14.56191905
136 1 -10.40137075 6.24082245 12.4816449
137 1 -10.40137075 4.1605483 18.72246735
138 1 -10.40137075 6.24082245 16.6421932
139 1 -10.40137075 8.3210966 -10.40137075
140 1 -10.40137075 8.3210966 -6.24082245
141 1 -10.40137075 8.3210966 -2.08027415
142 1 -10.40137075 10.40137075 -4.1605483
143 1 -10.40137075 8.3210966 2.08027415
144 1 -10.40137075 10.40137075 0.0
145 1 -10.40137075 8.3210966 6.24082245
146 1 -10.40137075 10.40137075 4.1605483
147 1 -10.40137075 8.3210966 10.40137075
148 1 -6.24082245 -10.40137075 -16.6421932
149 1 -8.3210966 -10.40137075 -10.40137075
150 1 -6.24082245 -12.4816449 -10.40137075
151 1 -6.24082245 -10.40137075 -12.4816449
152 1 -8.3210966 -10.40137075 -6.24082245
153 1 -6.24082245 -12.4816449 -6.24082245
154 1 -6.24082245 -10.40137075 -8.3210966
155 1 -8.3210966 -10.40137075 -2.08027415
156 1 -6.24082245 -12.4816449 -2.08027415
157 1 -6.24082245 -10.40137075 -4.1605483
158 1 -8.3210966 -10.40137075 2.08027415
159 1 -6.24082245 -12.4816449 2.08027415
160 1 -6.24082245 -10.40137075 0.0
161 1 -8.3210966 -10.40137075 6.24082245
162 1 -6.24082245 -12.4816449 6.24082245
163 1 -6.24082245 -10.40137075 4.1605483
164 1 -8.3210966 -10.40137075 10.40137075
165 1 -6.24082245 -12.4816449 10.40137075
166 1 -6.24082245 -10.40137075 8.3210966
167 1 -6.24082245 -10.40137075 12.4816449
168 1 -6.24082245 -10.40137075 16.6421932
169 1 -8.3210966 -6.24082245 -18.72246735
170 1 -6.24082245 -8.3210966 -18.72246735
171 1 -6.24082245 -6.24082245 -20.8027415
172 1 -8.3210966 -8.3210966 -16.6421932
173 1 -8.3210966 -6.24082245 -14.56191905
174 1 -6.24082245 -8.3210966 -14.56191905
175 1 -6.24082245 -6.24082245 -16.6421932
176 1 -8.3210966 -8.3210966 -12.4816449
177 1 -8.3210966 -6.24082245 -10.40137075
178 1 -6.24082245 -8.3210966 -10.40137075
179 1 -6.24082245 -6.24082245 -12.4816449
180 1 -8.3210966 -8.3210966 -8.3210966
181 1 -8.3210966 -6.24082245 -6.24082245
182 1 -6.24082245 -8.3210966 -6.24082245
183 1 -6.24082245 -6.24082245 -8.3210966
184 1 -8.3210966 -8.3210966 -4.1605483
185 1 -8.3210966 -6.24082245 -2.08027415
186 1 -6.24082245 -8.3210966 -2.08027415
187 1 -6.24082245 -6.24082245 -4.1605483
188 1 -8.3210966 -8.3210966 0.0
189 1 -8.3210966 -6.24082245 2.08027415
190 1 -6.24082245 -8.3210966 2.08027415
191 1 -6.24082245 -6.24082245 0.0
192 1 -8.3210966 -8.3210966 4.1605483
193 1 -8.3210966 -6.24082245 6.24082245
194 1 -6.24082245 -8.3210966 6.24082245
195 1 -6.24082245 -6.24082245 4.1605483
196 1 -8.3210966 -8.3210966 8.3210966
197 1 -8.3210966 -6.24082245 10.40137075
198 1 -6.24082245 -8.3210966 10.40137075
199 1 -6.24082245 -6.24082245 8.3210966
200 1 -8.3210966 -8.3210966 12.4816449
201 1 -8.3210966 -6.24082245 14.56191905
202 1 -6.24082245 -8.3210966 14.56191905
203 1 -6.24082245 -6.24082245 12.4816449
204 1 -8.3210966 -8.3210966 16.6421932
205 1 -8.3210966 -6.24082245 18.72246735
206 1 -6.24082245 -8.3210966 18.72246735
207 1 -6.24082245 -6.24082245 16.6421932
208 1 -6.24082245 -6.24082245 20.8027415
209 1 -8.3210966 -2.08027415 -22.88301565
210 1 -6.24082245 -4.1605483 -22.88301565
211 1 -6.24082245 -2.08027415 -24.9632898
212 1 -8.3210966 -4.1605483 -20.8027415
213 1 -8.3210966 -2.08027415 -18.72246735
214 1 -6.24082245 -4.1605483 -18.72246735
215 1 -6.24082245 -2.08027415 -20.8027415
216 1 -8.3210966 -4.1605483 -16.6421932
217 1 -8.3210966 -2.08027415 -14.56191905
218 1 -6.24082245 -4.1605483 -14.56191905
219 1 -6.24082245 -2.08027415 -16.6421932
220 1 -8.3210966 -4.1605483 -12.4816449
221 1 -8.3210966 -2.08027415 -10.40137075
222 1 -6.24082245 -4.1605483 -10.40137075
223 1 -6.24082245 -2.08027415 -12.4816449
224 1 -8.3210966 -4.1605483 -8.3210966
225 1 -8.3210966 -2.08027415 -6.24082245
226 1 -6.24082245 -4.1605483 -6.24082245
227 1 -6.24082245 -2.08027415 -8.3210966
228 1 -8.3210966 -4.1605483 -4.1605483
229 1 -8.3210966 -2.08027415 -2.08027415
230 1 -6.24082245 -4.1605483 -2.08027415
231 1 -6.24082245 -2.08027415 -4.1605483
232 1 -8.3210966 -4.1605483 0.0
233 1 -8.3210966 -2.08027415 2.08027415
234 1 -6.24082245 -4.1605483 2.08027415
235 1 -6.24082245 -2.08027415 0.0
236 1 -8.3210966 -4.1605483 4.1605483
237 1 -8.3210966 -2.08027415 6.24082245
238 1 -6.24082245 -4.1605483 6.24082245
239 1 -6.24082245 -2.08027415 4.1605483
240 1 -8.3210966 -4.1605483 8.3210966
241 1 -8.3210966 -2.08027415 10.40137075
242 1 -6.24082245 -4.1605483 10.40137075
243 1 -6.24082245 -2.08027415 8.3210966
244 1 -8.3210966 -4.1605483 12.4816449
245 1 -8.3210966 -2.08027415 14.56191905
246 1 -6.24082245 -4.1605483 14.56191905
247 1 -6.24082245 -2.08027415 12.4816449
248 1 -8.3210966 -4.1605483 16.6421932
249 1 -8.3210966 -2.08027415 18.72246735
250 1 -6.24082245 -4.1605483 18.72246735
251 1 -6.24082245 -2.08027415 16.6421932
252 1 -8.3210966 -4.1605483 20.8027415
253 1 -8.3210966 -2.08027415 22.88301565
254 1 -6.24082245 -4.1605483 22.88301565
255 1 -6.24082245 -2.08027415 20.8027415
256 1 -6.24082245 -2.08027415 24.9632898
257 1 -6.24082245 0.0 -27.04356395
258 1 -8.3210966 2.08027415 -22.88301565
259 1 -6.24082245 0.0 -22.88301565
260 1 -6.24082245 2.08027415 -24.9632898
261 1 -8.3210966 0.0 -20.8027415
262 1 -8.3210966 2.08027415 -18.72246735
263 1 -6.24082245 0.0 -18.72246735
264 1 -6.24082245 2.08027415 -20.8027415
265 1 -8.3210966 0.0 -16.6421932
266 1 -8.3210966 2.08027415 -14.56191905
267 1 -6.24082245 0.0 -14.56191905
268 1 -6.24082245 2.08027415 -16.6421932
269 1 -8.3210966 0.0 -12.4816449
270 1 -8.3210966 2.08027415 -10.40137075
271 1 -6.24082245 0.0 -10.40137075
272 1 -6.24082245 2.08027415 -12.4816449
273 1 -8.3210966 0.0 -8.3210966
274 1 -8.3210966 2.08027415 -6.24082245
275 1 -6.24082245 0.0 -6.24082245
276 1 -6.24082245 2.08027415 -8.3210966
277 1 -8.3210966 0.0 -4.1605483
278 1 -8.3210966 2.08027415 -2.08027415
279 1 -6.24082245 0.0 -2.08027415
280 1 -6.24082245 2.08027415 -4.1605483
281 1 -8.3210966 0.0 0.0
282 1 -8.3210966 2.08027415 2.08027415
283 1 -6.24082245 0.0 2.08027415
284 1 -6.24082245 2.08027415 0.0
285 1 -8.3210966 0.0 4.1605483
286 1 -8.3210966 2.08027415 6.24082245
287 1 -6.24082245 0.0 6.24082245
288 1 -6.24082245 2.08027415 4.1605483
289 1 -8.3210966 0.0 8.3210966
290 1 -8.3210966 2.08027415 10.40137075
291 1 -6.24082245 0.0 10.40137075
292 1 -6.24082245 2.08027415 8.3210966
293 1 -8.3210966 0.0 12.4816449
294 1 -8.3210966 2.08027415 14.56191905
295 1 -6.24082245 0.0 14.56191905
296 1 -6.24082245 2.08027415 12.4816449
297 1 -8.3210966 0.0 16.6421932
298 1 -8.3210966 2.08027415 18.72246735
299 1 -6.24082245 0.0 18.72246735
300 1 -6.24082245 2.08027415 16.6421932
301 1 -8.3210966 0.0 20.8027415
302 1 -8.3210966 2.08027415 22.88301565
303 1 -6.24082245 0.0 22.88301565
304 1 -6.24082245 2.08027415 20.8027415
305 1 -6.24082245 0.0 27.04356395
306 1 -6.24082245 2.08027415 24.9632898
307 1 -6.24082245 4.1605483 -22.88301565
308 1 -8.3210966 4.1605483 -20.8027415
309 1 -8.3210966 6.24082245 -18.72246735
310 1 -6.24082245 4.1605483 -18.72246735
311 1 -6.24082245 6.24082245 -20.8027415
312 1 -8.3210966 4.1605483 -16.6421932
313 1 -8.3210966 6.24082245 -14.56191905
314 1 -6.24082245 4.1605483 -14.56191905
315 1 -6.24082245 6.24082245 -16.6421932
316 1 -8.3210966 4.1605483 -12.4816449
317 1 -8.3210966 6.24082245 -10.40137075
318 1 -6.24082245 4.1605483 -10.40137075
319 1 -6.24082245 6.24082245 -12.4816449
320 1 -8.3210966 4.1605483 -8.3210966
321 1 -8.3210966 6.24082245 -6.24082245
322 1 -6.24082245 4.1605483 -6.24082245
323 1 -6.24082245 6.24082245 -8.3210966
324 1 -8.3210966 4.1605483 -4.1605483
325 1 -8.3210966 6.24082245 -2.08027415
326 1 -6.24082245 4.1605483 -2.08027415
327 1 -6.24082245 6.24082245 -4.1605483
328 1 -8.3210966 4.1605483 0.0
329 1 -8.3210966 6.24082245 2.08027415
330 1 -6.24082245 4.1605483 2.08027415
331 1 -6.24082245 6.24082245 0.0
332 1 -8.3210966 4.1605483 4.1605483
333 1 -8.3210966 6.24082245 6.24082245
334 1 -6.24082245 4.1605483 6.24082245
335 1 -6.24082245 6.24082245 4.1605483
336 1 -8.3210966 4.1605483 8.3210966
337 1 -8.3210966 6.24082245 10.40137075
338 1 -6.24082245 4.1605483 10.40137075
339 1 -6.24082245 6.24082245 8.3210966
340 1 -8.3210966 4.1605483 12.4816449
341 1 -8.3210966 6.24082245 14.56191905
342 1 -6.24082245 4.1605483 14.56191905
343 1 -6.24082245 6.24082245 12.4816449
344 1 -8.3210966 4.1605483 16.6421932
345 1 -8.3210966 6.24082245 18.72246735
346 1 -6.24082245 4.1605483 18.72246735
347 1 -6.24082245 6.24082245 16.6421932
348 1 -8.3210966 4.1605483 20.8027415
349 1 -6.24082245 4.1605483 22.88301565
350 1 -6.24082245 6.24082245 20.8027415
351 1 -6.24082245 8.3210966 -18.72246735
352 1 -8.3210966 8.3210966 -16.6421932
353 1 -6.24082245 8.3210966 -14.56191905
354 1 -6.24082245 10.40137075 -16.6421932
355 1 -8.3210966 8.3210966 -12.4816449
356 1 -8.3210966 10.40137075 -10.40137075
357 1 -6.24082245 8.3210966 -10.40137075
358 1 -6.24082245 10.40137075 -12.4816449
359 1 -8.3210966 8.3210966 -8.3210966
360 1 -8.3210966 10.40137075 -6.24082245
361 1 -6.24082245 8.3210966 -6.24082245
362 1 -6.24082245 10.40137075 -8.3210966
363 1 -8.3210966 8.3210966 -4.1605483
364 1 -8.3210966 10.40137075 -2.08027415
365 1 -6.24082245 8.3210966 -2.08027415
366 1 -6.24082245 10.40137075 -4.1605483
367 1 -8.3210966 8.3210966 0.0
368 1 -8.3210966 10.40137075 2.08027415
369 1 -6.24082245 8.3210966 2.08027415
370 1 -6.24082245 10.40137075 0.0
371 1 -8.3210966 8.3210966 4.1605483
372 1 -8.3210966 10.40137075 6.24082245
373 1 -6.24082245 8.3210966 6.24082245
374 1 -6.24082245 10.40137075 4.1605483
375 1 -8.3210966 8.3210966 8.3210966
376 1 -8.3210966 10.40137075 10.40137075
377 1 -6.24082245 8.3210966 10.40137075
378 1 -6.24082245 10.40137075 8.3210966
379 1 -8.3210966 8.3210966 12.4816449
380 1 -6.24082245 8.3210966 14.56191905
381 1 -6.24082245 10.40137075 12.4816449
382 1 -8.3210966 8.3210966 16.6421932
383 1 -6.24082245 8.3210966 18.72246735
384 1 -6.24082245 10.40137075 16.6421932
385 1 -6.24082245 12.4816449 -10.40137075
386 1 -6.24082245 12.4816449 -6.24082245
387 1 -6.24082245 12.4816449 -2.08027415
388 1 -6.24082245 12.4816449 2.08027415
389 1 -6.24082245 12.4816449 6.24082245
390 1 -6.24082245 12.4816449 10.40137075
391 1 -2.08027415 -14.56191905 -4.1605483
392 1 -2.08027415 -14.56191905 0.0
393 1 -2.08027415 -14.56191905 4.1605483
394 1 -4.1605483 -10.40137075 -18.72246735
395 1 -2.08027415 -10.40137075 -20.8027415
396 1 -4.1605483 -10.40137075 -14.56191905
397 1 -2.08027415 -12.4816449 -14.56191905
398 1 -2.08027415 -10.40137075 -16.6421932
399 1 -4.1605483 -12.4816449 -12.4816449
400 1 -4.1605483 -10.40137075 -10.40137075
401 1 -2.08027415 -12.4816449 -10.40137075
402 1 -2.08027415 -10.40137075 -12.4816449
403 1 -4.1605483 -12.4816449 -8.3210966
404 1 -4.1605483 -10.40137075 -6.24082245
405 1 -2.08027415 -12.4816449 -6.24082245
406 1 -2.08027415 -10.40137075 -8.3210966
407 1 -4.1605483 -12.4816449 -4.1605483
408 1 -4.1605483 -10.40137075 -2.08027415
409 1 -2.08027415 -12.4816449 -2.08027415
410 1 -2.08027415 -10.40137075 -4.1605483
411 1 -4.1605483 -12.4816449 0.0
412 1 -4.1605483 -10.40137075 2.08027415
413 1 -2.08027415 -12.4816449 2.08027415
414 1 -2.08027415 -10.40137075 0.0
415 1 -4.1605483 -12.4816449 4.1605483
416 1 -4.1605483 -10.40137075 6.24082245
417 1 -2.08027415 -12.4816449 6.24082245
418 1 -2.08027415 -10.40137075 4.1605483
419 1 -4.1605483 -12.4816449 8.3210966
420 1 -4.1605483 -10.40137075 10.40137075
421 1 -2.08027415 -12.4816449 10.40137075
422 1 -2.08027415 -10.40137075 8.3210966
423 1 -4.1605483 -12.4816449 12.4816449
424 1 -4.1605483 -10.40137075 14.56191905
425 1 -2.08027415 -12.4816449 14.56191905
426 1 -2.08027415 -10.40137075 12.4816449
427 1 -4.1605483 -10.40137075 18.72246735
428 1 -2.08027415 -10.40137075 16.6421932
429 1 -2.08027415 -10.40137075 20.8027415
430 1 -4.1605483 -6.24082245 -22.88301565
431 1 -2.08027415 -8.3210966 -22.88301565
432 1 -2.08027415 -6.24082245 -24.9632898
433 1 -4.1605483 -8.3210966 -20.8027415
434 1 -4.1605483 -6.24082245 -18.72246735
435 1 -2.08027415 -8.3210966 -18.72246735
436 1 -2.08027415 -6.24082245 -20.8027415
437 1 -4.1605483 -8.3210966 -16.6421932
438 1 -4.1605483 -6.24082245 -14.56191905
439 1 -2.08027415 -8.3210966 -14.56191905
440 1 -2.08027415 -6.24082245 -16.6421932
441 1 -4.1605483 -8.3210966 -12.4816449
442 1 -4.1605483 -6.24082245 -10.40137075
443 1 -2.08027415 -8.3210966 -10.40137075
444 1 -2.08027415 -6.24082245 -12.4816449
445 1 -4.1605483 -8.3210966 -8.3210966
446 1 -4.1605483 -6.24082245 -6.24082245
447 1 -2.08027415 -8.3210966 -6.24082245
448 1 -2.08027415 -6.24082245 -8.3210966
449 1 -4.1605483 -8.3210966 -4.1605483
450 1 -4.1605483 -6.24082245 -2.08027415
451 1 -2.08027415 -8.3210966 -2.08027415
452 1 -2.08027415 -6.24082245 -4.1605483
453 1 -4.1605483 -8.3210966 0.0
454 1 -4.1605483 -6.24082245 2.08027415
455 1 -2.08027415 -8.3210966 2.08027415
456 1 -2.08027415 -6.24082245 0.0
457 1 -4.1605483 -8.3210966 4.1605483
458 1 -4.1605483 -6.24082245 6.24082245
459 1 -2.08027415 -8.3210966 6.24082245
460 1 -2.08027415 -6.24082245 4.1605483
461 1 -4.1605483 -8.3210966 8.3210966
462 1 -4.1605483 -6.24082245 10.40137075
463 1 -2.08027415 -8.3210966 10.40137075
464 1 -2.08027415 -6.24082245 8.3210966
465 1 -4.1605483 -8.3210966 12.4816449
466 1 -4.1605483 -6.24082245 14.56191905
467 1 -2.08027415 -8.3210966 14.56191905
468 1 -2.08027415 -6.24082245 12.4816449
469 1 -4.1605483 -8.3210966 16.6421932
470 1 -4.1605483 -6.24082245 18.72246735
471 1 -2.08027415 -8.3210966 18.72246735
472 1 -2.08027415 -6.24082245 16.6421932
473 1 -4.1605483 -8.3210966 20.8027415
474 1 -4.1605483 -6.24082245 22.88301565
475 1 -2.08027415 -8.3210966 22.88301565
476 1 -2.08027415 -6.24082245 20.8027415
477 1 -2.08027415 -6.24082245 24.9632898
478 1 -4.1605483 -2.08027415 -27.04356395
479 1 -2.08027415 -4.1605483 -27.04356395
480 1 -2.08027415 -2.08027415 -29.1238381
481 1 -4.1605483 -4.1605483 -24.9632898
482 1 -4.1605483 -2.08027415 -22.88301565
483 1 -2.08027415 -4.1605483 -22.88301565
484 1 -2.08027415 -2.08027415 -24.9632898
485 1 -4.1605483 -4.1605483 -20.8027415
486 1 -4.1605483 -2.08027415 -18.72246735
487 1 -2.08027415 -4.1605483 -18.72246735
488 1 -2.08027415 -2.08027415 -20.8027415
489 1 -4.1605483 -4.1605483 -16.6421932
490 1 -4.1605483 -2.08027415 -14.56191905
491 1 -2.08027415 -4.1605483 -14.56191905
492 1 -2.08027415 -2.08027415 -16.6421932
493 1 -4.1605483 -4.1605483 -12.4816449
494 1 -4.1605483 -2.08027415 -10.40137075
495 1 -2.08027415 -4.1605483 -10.40137075
496 1 -2.08027415 -2.08027415 -12.4816449
497 1 -4.1605483 -4.1605483 -8.3210966
498 1 -4.1605483 -2.08027415 -6.24082245
499 1 -2.08027415 -4.1605483 -6.24082245
500 1 -2.08027415 -2.08027415 -8.3210966
501 1 -4.1605483 -4.1605483 -4.1605483
502 1 -4.1605483 -2.08027415 -2.08027415
503 1 -2.08027415 -4.1605483 -2.08027415
504 1 -2.08027415 -2.08027415 -4.1605483
505 1 -4.1605483 -4.1605483 0.0
506 1 -4.1605483 -2.08027415 2.08027415
507 1 -2.08027415 -4.1605483 2.08027415
508 1 -2.08027415 -2.08027415 0.0
509 1 -4.1605483 -4.1605483 4.1605483
510 1 -4.1605483 -2.08027415 6.24082245
511 1 -2.08027415 -4.1605483 6.24082245
512 1 -2.08027415 -2.08027415 4.1605483
513 1 -4.1605483 -4.1605483 8.3210966
514 1 -4.1605483 -2.08027415 10.40137075
515 1 -2.08027415 -4.1605483 10.40137075
516 1 -2.08027415 -2.08027415 8.3210966
517 1 -4.1605483 -4.1605483 12.4816449
518 1 -4.1605483 -2.08027415 14.56191905
519 1 -2.08027415 -4.1605483 14.56191905
520 1 -2.08027415 -2.08027415 12.4816449
521 1 -4.1605483 -4.1605483 16.6421932
522 1 -4.1605483 -2.08027415 18.72246735
523 1 -2.08027415 -4.1605483 18.72246735
524 1 -2.08027415 -2.08027415 16.6421932
525 1 -4.1605483 -4.1605483 20.8027415
526 1 -4.1605483 -2.08027415 22.88301565
527 1 -2.08027415 -4.1605483 22.88301565
528 1 -2.08027415 -2.08027415 20.8027415
529 1 -4.1605483 -4.1605483 24.9632898
530 1 -4.1605483 -2.08027415 27.04356395
531 1 -2.08027415 -4.1605483 27.04356395
532 1 -2.08027415 -2.08027415 24.9632898
533 1 -2.08027415 -2.08027415 29.1238381
534 1 -4.1605483 2.08027415 -27.04356395
535 1 -2.08027415 0.0 -27.04356395
536 1 -2.08027415 2.08027415 -29.1238381
537 1 -4.1605483 0.0 -24.9632898
538 1 -4.1605483 2.08027415 -22.88301565
539 1 -2.08027415 0.0 -22.88301565
540 1 -2.08027415 2.08027415 -24.9632898
541 1 -4.1605483 0.0 -20.8027415
542 1 -4.1605483 2.08027415 -18.72246735
543 1 -2.08027415 0.0 -18.72246735
544 1 -2.08027415 2.08027415 -20.8027415
545 1 -4.1605483 0.0 -16.6421932
546 1 -4.1605483 2.08027415 -14.56191905
547 1 -2.08027415 0.0 -14.56191905
548 1 -2.08027415 2.08027415 -16.6421932
549 1 -4.1605483 0.0 -12.4816449
550 1 -4.1605483 2.08027415 -10.40137075
551 1 -2.08027415 0.0 -10.40137075
552 1 -2.08027415 2.08027415 -12.4816449
553 1 -4.1605483 0.0 -8.3210966
554 1 -4.1605483 2.08027415 -6.24082245
555 1 -2.08027415 0.0 -6.24082245
556 1 -2.08027415 2.08027415 -8.3210966
557 1 -4.1605483 0.0 -4.1605483
558 1 -4.1605483 2.08027415 -2.08027415
559 1 -2.08027415 0.0 -2.08027415
560 1 -2.08027415 2.08027415 -4.1605483
561 1 -4.1605483 0.0 0.0
562 1 -4.1605483 2.08027415 2.08027415
563 1 -2.08027415 0.0 2.08027415
564 1 -2.08027415 2.08027415 0.0
565 1 -4.1605483 0.0 4.1605483
566 1 -4.1605483 2.08027415 6.24082245
567 1 -2.08027415 0.0 6.24082245
568 1 -2.08027415 2.08027415 4.1605483
569 1 -4.1605483 0.0 8.3210966
570 1 -4.1605483 2.08027415 10.40137075
571 1 -2.08027415 0.0 10.40137075
572 1 -2.08027415 2.08027415 8.3210966
573 1 -4.1605483 0.0 12.4816449
574 1 -4.1605483 2.08027415 14.56191905
575 1 -2.08027415 0.0 14.56191905
576 1 -2.08027415 2.08027415 12.4816449
577 1 -4.1605483 0.0 16.6421932
578 1 -4.1605483 2.08027415 18.72246735
579 1 -2.08027415 0.0 18.72246735
580 1 -2.08027415 2.08027415 16.6421932
581 1 -4.1605483 0.0 20.8027415
582 1 -4.1605483 2.08027415 22.88301565
583 1 -2.08027415 0.0 22.88301565
584 1 -2.08027415 2.08027415 20.8027415
585 1 -4.1605483 0.0 24.9632898
586 1 -4.1605483 2.08027415 27.04356395
587 1 -2.08027415 0.0 27.04356395
588 1 -2.08027415 2.08027415 24.9632898
589 1 -2.08027415 2.08027415 29.1238381
590 1 -2.08027415 4.1605483 -27.04356395
591 1 -4.1605483 4.1605483 -24.9632898
592 1 -4.1605483 6.24082245 -22.88301565
593 1 -2.08027415 4.1605483 -22.88301565
594 1 -2.08027415 6.24082245 -24.9632898
595 1 -4.1605483 4.1605483 -20.8027415
596 1 -4.1605483 6.24082245 -18.72246735
597 1 -2.08027415 4.1605483 -18.72246735
598 1 -2.08027415 6.24082245 -20.8027415
599 1 -4.1605483 4.1605483 -16.6421932
600 1 -4.1605483 6.24082245 -14.56191905
601 1 -2.08027415 4.1605483 -14.56191905
602 1 -2.08027415 6.24082245 -16.6421932
603 1 -4.1605483 4.1605483 -12.4816449
604 1 -4.1605483 6.24082245 -10.40137075
605 1 -2.08027415 4.1605483 -10.40137075
606 1 -2.08027415 6.24082245 -12.4816449
607 1 -4.1605483 4.1605483 -8.3210966
608 1 -4.1605483 6.24082245 -6.24082245
609 1 -2.08027415 4.1605483 -6.24082245
610 1 -2.08027415 6.24082245 -8.3210966
611 1 -4.1605483 4.1605483 -4.1605483
612 1 -4.1605483 6.24082245 -2.08027415
613 1 -2.08027415 4.1605483 -2.08027415
614 1 -2.08027415 6.24082245 -4.1605483
615 1 -4.1605483 4.1605483 0.0
616 1 -4.1605483 6.24082245 2.08027415
617 1 -2.08027415 4.1605483 2.08027415
618 1 -2.08027415 6.24082245 0.0
619 1 -4.1605483 4.1605483 4.1605483
620 1 -4.1605483 6.24082245 6.24082245
621 1 -2.08027415 4.1605483 6.24082245
622 1 -2.08027415 6.24082245 4.1605483
623 1 -4.1605483 4.1605483 8.3210966
624 1 -4.1605483 6.24082245 10.40137075
625 1 -2.08027415 4.1605483 10.40137075
626 1 -2.08027415 6.24082245 8.3210966
627 1 -4.1605483 4.1605483 12.4816449
628 1 -4.1605483 6.24082245 14.56191905
629 1 -2.08027415 4.1605483 14.56191905
630 1 -2.08027415 6.24082245 12.4816449
631 1 -4.1605483 4.1605483 16.6421932
632 1 -4.1605483 6.24082245 18.72246735
633 1 -2.08027415 4.1605483 18.72246735
634 1 -2.08027415 6.24082245 16.6421932
635 1 -4.1605483 4.1605483 20.8027415
636 1 -4.1605483 6.24082245 22.88301565
637 1 -2.08027415 4.1605483 22.88301565
638 1 -2.08027415 6.24082245 20.8027415
639 1 -4.1605483 4.1605483 24.9632898
640 1 -2.08027415 4.1605483 27.04356395
641 1 -2.08027415 6.24082245 24.9632898
642 1 -2.08027415 8.3210966 -22.88301565
643 1 -4.1605483 8.3210966 -20.8027415
644 1 -4.1605483 10.40137075 -18.72246735
645 1 -2.08027415 8.3210966 -18.72246735
646 1 -2.08027415 10.40137075 -20.8027415
647 1 -4.1605483 8.3210966 -16.6421932
648 1 -4.1605483 10.40137075 -14.56191905
649 1 -2.08027415 8.3210966 -14.56191905
650 1 -2.08027415 10.40137075 -16.6421932
651 1 -4.1605483 8.3210966 -12.4816449
652 1 -4.1605483 10.40137075 -10.40137075
653 1 -2.08027415 8.3210966 -10.40137075
654 1 -2.08027415 10.40137075 -12.4816449
655 1 -4.1605483 8.3210966 -8.3210966
656 1 -4.1605483 10.40137075 -6.24082245
657 1 -2.08027415 8.3210966 -6.24082245
658 1 -2.08027415 10.40137075 -8.3210966
659 1 -4.1605483 8.3210966 -4.1605483
660 1 -4.1605483 10.40137075 -2.08027415
661 1 -2.08027415 8.3210966 -2.08027415
662 1 -2.08027415 10.40137075 -4.1605483
663 1 -4.1605483 8.3210966 0.0
664 1 -4.1605483 10.40137075 2.08027415
665 1 -2.08027415 8.3210966 2.08027415
666 1 -2.08027415 10.40137075 0.0
667 1 -4.1605483 8.3210966 4.1605483
668 1 -4.1605483 10.40137075 6.24082245
669 1 -2.08027415 8.3210966 6.24082245
670 1 -2.08027415 10.40137075 4.1605483
671 1 -4.1605483 8.3210966 8.3210966
672 1 -4.1605483 10.40137075 10.40137075
673 1 -2.08027415 8.3210966 10.40137075
674 1 -2.08027415 10.40137075 8.3210966
675 1 -4.1605483 8.3210966 12.4816449
676 1 -4.1605483 10.40137075 14.56191905
677 1 -2.08027415 8.3210966 14.56191905
678 1 -2.08027415 10.40137075 12.4816449
679 1 -4.1605483 8.3210966 16.6421932
680 1 -4.1605483 10.40137075 18.72246735
681 1 -2.08027415 8.3210966 18.72246735
682 1 -2.08027415 10.40137075 16.6421932
683 1 -4.1605483 8.3210966 20.8027415
684 1 -2.08027415 8.3210966 22.88301565
685 1 -2.08027415 10.40137075 20.8027415
686 1 -2.08027415 12.4816449 -14.56191905
687 1 -4.1605483 12.4816449 -12.4816449
688 1 -2.08027415 12.4816449 -10.40137075
689 1 -4.1605483 12.4816449 -8.3210966
690 1 -2.08027415 12.4816449 -6.24082245
691 1 -4.1605483 12.4816449 -4.1605483
692 1 -2.08027415 12.4816449 -2.08027415
693 1 -2.08027415 14.56191905 -4.1605483
694 1 -4.1605483 12.4816449 0.0
695 1 -2.08027415 12.4816449 2.08027415
696 1 -2.08027415 14.56191905 0.0
697 1 -4.1605483 12.4816449 4.1605483
698 1 -2.08027415 12.4816449 6.24082245
699 1 -2.08027415 14.56191905 4.1605483
700 1 -4.1605483 12.4816449 8.3210966
701 1 -2.08027415 12.4816449 10.40137075
702 1 -4.1605483 12.4816449 12.4816449
703 1 -2.08027415 12.4816449 14.56191905
704 1 0.0 -14.56191905 -6.24082245
705 1 0.0 -14.56191905 -2.08027415
706 1 2.08027415 -14.56191905 -4.1605483
707 1 0.0 -14.56191905 2.08027415
708 1 2.08027415 -14.56191905 0.0
709 1 0.0 -14.56191905 6.24082245
710 1 2.08027415 -14.56191905 4.1605483
711 1 0.0 -10.40137075 -18.72246735
712 1 2.08027415 -10.40137075 -20.8027415
713 1 0.0 -10.40137075 -14.56191905
714 1 2.08027415 -12.4816449 -14.56191905
715 1 2.08027415 -10.40137075 -16.6421932
716 1 0.0 -12.4816449 -12.4816449
717 1 0.0 -10.40137075 -10.40137075
718 1 2.08027415 -12.4816449 -10.40137075
719 1 2.08027415 -10.40137075 -12.4816449
720 1 0.0 -12.4816449 -8.3210966
721 1 0.0 -10.40137075 -6.24082245
722 1 2.08027415 -12.4816449 -6.24082245
723 1 2.08027415 -10.40137075 -8.3210966
724 1 0.0 -12.4816449 -4.1605483
725 1 0.0 -10.40137075 -2.08027415
726 1 2.08027415 -12.4816449 -2.08027415
727 1 2.08027415 -10.40137075 -4.1605483
728 1 0.0 -12.4816449 0.0
729 1 0.0 -10.40137075 2.08027415
730 1 2.08027415 -12.4816449 2.08027415
731 1 2.08027415 -10.40137075 0.0
732 1 0.0 -12.4816449 4.1605483
733 1 0.0 -10.40137075 6.24082245
734 1 2.08027415 -12.4816449 6.24082245
735 1 2.08027415 -10.40137075 4.1605483
736 1 0.0 -12.4816449 8.3210966
737 1 0.0 -10.40137075 10.40137075
738 1 2.08027415 -12.4816449 10.40137075
739 1 2.08027415 -10.40137075 8.3210966
740 1 0.0 -12.4816449 12.4816449
741 1 0.0 -10.40137075 14.56191905
742 1 2.08027415 -12.4816449 14.56191905
743 1 2.08027415 -10.40137075 12.4816449
744 1 0.0 -10.40137075 18.72246735
745 1 2.08027415 -10.40137075 16.6421932
746 1 2.08027415 -10.40137075 20.8027415
747 1 0.0 -6.24082245 -27.04356395
748 1 0.0 -6.24082245 -22.88301565
749 1 2.08027415 -8.3210966 -22.88301565
750 1 2.08027415 -6.24082245 -24.9632898
751 1 0.0 -8.3210966 -20.8027415
752 1 0.0 -6.24082245 -18.72246735
753 1 2.08027415 -8.3210966 -18.72246735
754 1 2.08027415 -6.24082245 -20.8027415
755 1 0.0 -8.3210966 -16.6421932
756 1 0.0 -6.24082245 -14.56191905
757 1 2.08027415 -8.3210966 -14.56191905
758 1 2.08027415 -6.24082245 -16.6421932
759 1 0.0 -8.3210966 -12.4816449
760 1 0.0 -6.24082245 -10.40137075
761 1 2.08027415 -8.3210966 -10.40137075