# Cluster_Combination Program by NingWang
 1283 atoms
 1 atom types
 -100 100 xlo xhi
 -100 100 ylo yhi
 -100 100 zlo zhi

 Atoms  # atomic

1 1 -8.3210966 -18.72246735 -14.56191905
2 1 -8.3210966 -18.72246735 -10.40137075
3 1 -6.24082245 -18.72246735 -12.4816449
4 1 -8.3210966 -18.72246735 -6.24082245
5 1 -6.24082245 -18.72246735 -8.3210966
6 1 -8.3210966 -18.72246735 -2.08027415
7 1 -6.24082245 -18.72246735 -4.1605483
8 1 -8.3210966 -18.72246735 2.08027415
9 1 -6.24082245 -18.72246735 0.0
10 1 -8.3210966 -18.72246735 6.24082245
11 1 -6.24082245 -18.72246735 4.1605483
12 1 -8.3210966 -18.72246735 10.40137075
13 1 -6.24082245 -18.72246735 8.3210966
14 1 -8.3210966 -18.72246735 14.56191905
15 1 -6.24082245 -18.72246735 12.4816449
16 1 -8.3210966 -14.56191905 -14.56191905
17 1 -6.24082245 -16.6421932 -14.56191905
18 1 -8.3210966 -16.6421932 -12.4816449
19 1 -8.3210966 -14.56191905 -10.40137075
20 1 -6.24082245 -16.6421932 -10.40137075
21 1 -6.24082245 -14.56191905 -12.4816449
22 1 -8.3210966 -16.6421932 -8.3210966
23 1 -8.3210966 -14.56191905 -6.24082245
24 1 -6.24082245 -16.6421932 -6.24082245
25 1 -6.24082245 -14.56191905 -8.3210966
26 1 -8.3210966 -16.6421932 -4.1605483
27 1 -8.3210966 -14.56191905 -2.08027415
28 1 -6.24082245 -16.6421932 -2.08027415
29 1 -6.24082245 -14.56191905 -4.1605483
30 1 -8.3210966 -16.6421932 0.0
31 1 -8.3210966 -14.56191905 2.08027415
32 1 -6.24082245 -16.6421932 2.08027415
33 1 -6.24082245 -14.56191905 0.0
34 1 -8.3210966 -16.6421932 4.1605483
35 1 -8.3210966 -14.56191905 6.24082245
36 1 -6.24082245 -16.6421932 6.24082245
37 1 -6.24082245 -14.56191905 4.1605483
38 1 -8.3210966 -16.6421932 8.3210966
39 1 -8.3210966 -14.56191905 10.40137075
40 1 -6.24082245 -16.6421932 10.40137075
41 1 -6.24082245 -14.56191905 8.3210966
42 1 -8.3210966 -16.6421932 12.4816449
43 1 -8.3210966 -14.56191905 14.56191905
44 1 -6.24082245 -16.6421932 14.56191905
45 1 -6.24082245 -14.56191905 12.4816449
46 1 -8.3210966 -10.40137075 -14.56191905
47 1 -6.24082245 -12.4816449 -14.56191905
48 1 -8.3210966 -12.4816449 -12.4816449
49 1 -8.3210966 -10.40137075 -10.40137075
50 1 -6.24082245 -12.4816449 -10.40137075
51 1 -6.24082245 -10.40137075 -12.4816449
52 1 -8.3210966 -12.4816449 -8.3210966
53 1 -8.3210966 -10.40137075 -6.24082245
54 1 -6.24082245 -12.4816449 -6.24082245
55 1 -6.24082245 -10.40137075 -8.3210966
56 1 -8.3210966 -12.4816449 -4.1605483
57 1 -8.3210966 -10.40137075 -2.08027415
58 1 -6.24082245 -12.4816449 -2.08027415
59 1 -6.24082245 -10.40137075 -4.1605483
60 1 -8.3210966 -12.4816449 0.0
61 1 -8.3210966 -10.40137075 2.08027415
62 1 -6.24082245 -12.4816449 2.08027415
63 1 -6.24082245 -10.40137075 0.0
64 1 -8.3210966 -12.4816449 4.1605483
65 1 -8.3210966 -10.40137075 6.24082245
66 1 -6.24082245 -12.4816449 6.24082245
67 1 -6.24082245 -10.40137075 4.1605483
68 1 -8.3210966 -12.4816449 8.3210966
69 1 -8.3210966 -10.40137075 10.40137075
70 1 -6.24082245 -12.4816449 10.40137075
71 1 -6.24082245 -10.40137075 8.3210966
72 1 -8.3210966 -12.4816449 12.4816449
73 1 -8.3210966 -10.40137075 14.56191905
74 1 -6.24082245 -12.4816449 14.56191905
75 1 -6.24082245 -10.40137075 12.4816449
76 1 -8.3210966 -6.24082245 -14.56191905
77 1 -6.24082245 -8.3210966 -14.56191905
78 1 -8.3210966 -8.3210966 -12.4816449
79 1 -8.3210966 -6.24082245 -10.40137075
80 1 -6.24082245 -8.3210966 -10.40137075
81 1 -6.24082245 -6.24082245 -12.4816449
82 1 -8.3210966 -8.3210966 -8.3210966
83 1 -8.3210966 -6.24082245 -6.24082245
84 1 -6.24082245 -8.3210966 -6.24082245
85 1 -6.24082245 -6.24082245 -8.3210966
86 1 -8.3210966 -8.3210966 -4.1605483
87 1 -8.3210966 -6.24082245 -2.08027415
88 1 -6.24082245 -8.3210966 -2.08027415
89 1 -6.24082245 -6.24082245 -4.1605483
90 1 -8.3210966 -8.3210966 0.0
91 1 -8.3210966 -6.24082245 2.08027415
92 1 -6.24082245 -8.3210966 2.08027415
93 1 -6.24082245 -6.24082245 0.0
94 1 -8.3210966 -8.3210966 4.1605483
95 1 -8.3210966 -6.24082245 6.24082245
96 1 -6.24082245 -8.3210966 6.24082245
97 1 -6.24082245 -6.24082245 4.1605483
98 1 -8.3210966 -8.3210966 8.3210966
99 1 -8.3210966 -6.24082245 10.40137075
100 1 -6.24082245 -8.3210966 10.40137075
101 1 -6.24082245 -6.24082245 8.3210966
102 1 -8.3210966 -8.3210966 12.4816449
103 1 -8.3210966 -6.24082245 14.56191905
104 1 -6.24082245 -8.3210966 14.56191905
105 1 -6.24082245 -6.24082245 12.4816449
106 1 -8.3210966 -2.08027415 -14.56191905
107 1 -6.24082245 -4.1605483 -14.56191905
108 1 -8.3210966 -4.1605483 -12.4816449
109 1 -8.3210966 -2.08027415 -10.40137075
110 1 -6.24082245 -4.1605483 -10.40137075
111 1 -6.24082245 -2.08027415 -12.4816449
112 1 -8.3210966 -4.1605483 -8.3210966
113 1 -8.3210966 -2.08027415 -6.24082245
114 1 -6.24082245 -4.1605483 -6.24082245
115 1 -6.24082245 -2.08027415 -8.3210966
116 1 -8.3210966 -4.1605483 -4.1605483
117 1 -8.3210966 -2.08027415 -2.08027415
118 1 -6.24082245 -4.1605483 -2.08027415
119 1 -6.24082245 -2.08027415 -4.1605483
120 1 -8.3210966 -4.1605483 0.0
121 1 -8.3210966 -2.08027415 2.08027415
122 1 -6.24082245 -4.1605483 2.08027415
123 1 -6.24082245 -2.08027415 0.0
124 1 -8.3210966 -4.1605483 4.1605483
125 1 -8.3210966 -2.08027415 6.24082245
126 1 -6.24082245 -4.1605483 6.24082245
127 1 -6.24082245 -2.08027415 4.1605483
128 1 -8.3210966 -4.1605483 8.3210966
129 1 -8.3210966 -2.08027415 10.40137075
130 1 -6.24082245 -4.1605483 10.40137075
131 1 -6.24082245 -2.08027415 8.3210966
132 1 -8.3210966 -4.1605483 12.4816449
133 1 -8.3210966 -2.08027415 14.56191905
134 1 -6.24082245 -4.1605483 14.56191905
135 1 -6.24082245 -2.08027415 12.4816449
136 1 -8.3210966 2.08027415 -14.56191905
137 1 -6.24082245 0.0 -14.56191905
138 1 -8.3210966 0.0 -12.4816449
139 1 -8.3210966 2.08027415 -10.40137075
140 1 -6.24082245 0.0 -10.40137075
141 1 -6.24082245 2.08027415 -12.4816449
142 1 -8.3210966 0.0 -8.3210966
143 1 -8.3210966 2.08027415 -6.24082245
144 1 -6.24082245 0.0 -6.24082245
145 1 -6.24082245 2.08027415 -8.3210966
146 1 -8.3210966 0.0 -4.1605483
147 1 -8.3210966 2.08027415 -2.08027415
148 1 -6.24082245 0.0 -2.08027415
149 1 -6.24082245 2.08027415 -4.1605483
150 1 -8.3210966 0.0 0.0
151 1 -8.3210966 2.08027415 2.08027415
152 1 -6.24082245 0.0 2.08027415
153 1 -6.24082245 2.08027415 0.0
154 1 -8.3210966 0.0 4.1605483
155 1 -8.3210966 2.08027415 6.24082245
156 1 -6.24082245 0.0 6.24082245
157 1 -6.24082245 2.08027415 4.1605483
158 1 -8.3210966 0.0 8.3210966
159 1 -8.3210966 2.08027415 10.40137075
160 1 -6.24082245 0.0 10.40137075
161 1 -6.24082245 2.08027415 8.3210966
162 1 -8.3210966 0.0 12.4816449
163 1 -8.3210966 2.08027415 14.56191905
164 1 -6.24082245 0.0 14.56191905
165 1 -6.24082245 2.08027415 12.4816449
166 1 -8.3210966 6.24082245 -14.56191905
167 1 -6.24082245 4.1605483 -14.56191905
168 1 -8.3210966 4.1605483 -12.4816449
169 1 -8.3210966 6.24082245 -10.40137075
170 1 -6.24082245 4.1605483 -10.40137075
171 1 -6.24082245 6.24082245 -12.4816449
172 1 -8.3210966 4.1605483 -8.3210966
173 1 -8.3210966 6.24082245 -6.24082245
174 1 -6.24082245 4.1605483 -6.24082245
175 1 -6.24082245 6.24082245 -8.3210966
176 1 -8.3210966 4.1605483 -4.1605483
177 1 -8.3210966 6.24082245 -2.08027415
178 1 -6.24082245 4.1605483 -2.08027415
179 1 -6.24082245 6.24082245 -4.1605483
180 1 -8.3210966 4.1605483 0.0
181 1 -8.3210966 6.24082245 2.08027415
182 1 -6.24082245 4.1605483 2.08027415
183 1 -6.24082245 6.24082245 0.0
184 1 -8.3210966 4.1605483 4.1605483
185 1 -8.3210966 6.24082245 6.24082245
186 1 -6.24082245 4.1605483 6.24082245
187 1 -6.24082245 6.24082245 4.1605483
188 1 -8.3210966 4.1605483 8.3210966
189 1 -8.3210966 6.24082245 10.40137075
190 1 -6.24082245 4.1605483 10.40137075
191 1 -6.24082245 6.24082245 8.3210966
192 1 -8.3210966 4.1605483 12.4816449
193 1 -8.3210966 6.24082245 14.56191905
194 1 -6.24082245 4.1605483 14.56191905
195 1 -6.24082245 6.24082245 12.4816449
196 1 -8.3210966 10.40137075 -14.56191905
197 1 -6.24082245 8.3210966 -14.56191905
198 1 -8.3210966 8.3210966 -12.4816449
199 1 -8.3210966 10.40137075 -10.40137075
200 1 -6.24082245 8.3210966 -10.40137075
201 1 -6.24082245 10.40137075 -12.4816449
202 1 -8.3210966 8.3210966 -8.3210966
203 1 -8.3210966 10.40137075 -6.24082245
204 1 -6.24082245 8.3210966 -6.24082245
205 1 -6.24082245 10.40137075 -8.3210966
206 1 -8.3210966 8.3210966 -4.1605483
207 1 -8.3210966 10.40137075 -2.08027415
208 1 -6.24082245 8.3210966 -2.08027415
209 1 -6.24082245 10.40137075 -4.1605483
210 1 -8.3210966 8.3210966 0.0
211 1 -8.3210966 10.40137075 2.08027415
212 1 -6.24082245 8.3210966 2.08027415
213 1 -6.24082245 10.40137075 0.0
214 1 -8.3210966 8.3210966 4.1605483
215 1 -8.3210966 10.40137075 6.24082245
216 1 -6.24082245 8.3210966 6.24082245
217 1 -6.24082245 10.40137075 4.1605483
218 1 -8.3210966 8.3210966 8.3210966
219 1 -8.3210966 10.40137075 10.40137075
220 1 -6.24082245 8.3210966 10.40137075
221 1 -6.24082245 10.40137075 8.3210966
222 1 -8.3210966 8.3210966 12.4816449
223 1 -8.3210966 10.40137075 14.56191905
224 1 -6.24082245 8.3210966 14.56191905
225 1 -6.24082245 10.40137075 12.4816449
226 1 -8.3210966 14.56191905 -14.56191905
227 1 -6.24082245 12.4816449 -14.56191905
228 1 -8.3210966 12.4816449 -12.4816449
229 1 -8.3210966 14.56191905 -10.40137075
230 1 -6.24082245 12.4816449 -10.40137075
231 1 -6.24082245 14.56191905 -12.4816449
232 1 -8.3210966 12.4816449 -8.3210966
233 1 -8.3210966 14.56191905 -6.24082245
234 1 -6.24082245 12.4816449 -6.24082245
235 1 -6.24082245 14.56191905 -8.3210966
236 1 -8.3210966 12.4816449 -4.1605483
237 1 -8.3210966 14.56191905 -2.08027415
238 1 -6.24082245 12.4816449 -2.08027415
239 1 -6.24082245 14.56191905 -4.1605483
240 1 -8.3210966 12.4816449 0.0
241 1 -8.3210966 14.56191905 2.08027415
242 1 -6.24082245 12.4816449 2.08027415
243 1 -6.24082245 14.56191905 0.0
244 1 -8.3210966 12.4816449 4.1605483
245 1 -8.3210966 14.56191905 6.24082245
246 1 -6.24082245 12.4816449 6.24082245
247 1 -6.24082245 14.56191905 4.1605483
248 1 -8.3210966 12.4816449 8.3210966
249 1 -8.3210966 14.56191905 10.40137075
250 1 -6.24082245 12.4816449 10.40137075
251 1 -6.24082245 14.56191905 8.3210966
252 1 -8.3210966 12.4816449 12.4816449
253 1 -8.3210966 14.56191905 14.56191905
254 1 -6.24082245 12.4816449 14.56191905
255 1 -6.24082245 14.56191905 12.4816449
256 1 -8.3210966 18.72246735 -14.56191905
257 1 -6.24082245 16.6421932 -14.56191905
258 1 -8.3210966 16.6421932 -12.4816449
259 1 -8.3210966 18.72246735 -10.40137075
260 1 -6.24082245 16.6421932 -10.40137075
261 1 -6.24082245 18.72246735 -12.4816449
262 1 -8.3210966 16.6421932 -8.3210966
263 1 -8.3210966 18.72246735 -6.24082245
264 1 -6.24082245 16.6421932 -6.24082245
265 1 -6.24082245 18.72246735 -8.3210966
266 1 -8.3210966 16.6421932 -4.1605483
267 1 -8.3210966 18.72246735 -2.08027415
268 1 -6.24082245 16.6421932 -2.08027415
269 1 -6.24082245 18.72246735 -4.1605483
270 1 -8.3210966 16.6421932 0.0
271 1 -8.3210966 18.72246735 2.08027415
272 1 -6.24082245 16.6421932 2.08027415
273 1 -6.24082245 18.72246735 0.0
274 1 -8.3210966 16.6421932 4.1605483
275 1 -8.3210966 18.72246735 6.24082245
276 1 -6.24082245 16.6421932 6.24082245
277 1 -6.24082245 18.72246735 4.1605483
278 1 -8.3210966 16.6421932 8.3210966
279 1 -8.3210966 18.72246735 10.40137075
280 1 -6.24082245 16.6421932 10.40137075
281 1 -6.24082245 18.72246735 8.3210966
282 1 -8.3210966 16.6421932 12.4816449
283 1 -8.3210966 18.72246735 14.56191905
284 1 -6.24082245 16.6421932 14.56191905
285 1 -6.24082245 18.72246735 12.4816449
286 1 -4.1605483 -18.72246735 -14.56191905
287 1 -4.1605483 -18.72246735 -10.40137075
288 1 -2.08027415 -18.72246735 -12.4816449
289 1 -4.1605483 -18.72246735 -6.24082245
290 1 -2.08027415 -18.72246735 -8.3210966
291 1 -4.1605483 -18.72246735 -2.08027415
292 1 -2.08027415 -18.72246735 -4.1605483
293 1 -4.1605483 -18.72246735 2.08027415
294 1 -2.08027415 -18.72246735 0.0
295 1 -4.1605483 -18.72246735 6.24082245
296 1 -2.08027415 -18.72246735 4.1605483
297 1 -4.1605483 -18.72246735 10.40137075
298 1 -2.08027415 -18.72246735 8.3210966
299 1 -4.1605483 -18.72246735 14.56191905
300 1 -2.08027415 -18.72246735 12.4816449
301 1 -4.1605483 -14.56191905 -14.56191905
302 1 -2.08027415 -16.6421932 -14.56191905
303 1 -4.1605483 -16.6421932 -12.4816449
304 1 -4.1605483 -14.56191905 -10.40137075
305 1 -2.08027415 -16.6421932 -10.40137075
306 1 -2.08027415 -14.56191905 -12.4816449
307 1 -4.1605483 -16.6421932 -8.3210966
308 1 -4.1605483 -14.56191905 -6.24082245
309 1 -2.08027415 -16.6421932 -6.24082245
310 1 -2.08027415 -14.56191905 -8.3210966
311 1 -4.1605483 -16.6421932 -4.1605483
312 1 -4.1605483 -14.56191905 -2.08027415
313 1 -2.08027415 -16.6421932 -2.08027415
314 1 -2.08027415 -14.56191905 -4.1605483
315 1 -4.1605483 -16.6421932 0.0
316 1 -4.1605483 -14.56191905 2.08027415
317 1 -2.08027415 -16.6421932 2.08027415
318 1 -2.08027415 -14.56191905 0.0
319 1 -4.1605483 -16.6421932 4.1605483
320 1 -4.1605483 -14.56191905 6.24082245
321 1 -2.08027415 -16.6421932 6.24082245
322 1 -2.08027415 -14.56191905 4.1605483
323 1 -4.1605483 -16.6421932 8.3210966
324 1 -4.1605483 -14.56191905 10.40137075
325 1 -2.08027415 -16.6421932 10.40137075
326 1 -2.08027415 -14.56191905 8.3210966
327 1 -4.1605483 -16.6421932 12.4816449
328 1 -4.1605483 -14.56191905 14.56191905
329 1 -2.08027415 -16.6421932 14.56191905
330 1 -2.08027415 -14.56191905 12.4816449
331 1 -4.1605483 -10.40137075 -14.56191905
332 1 -2.08027415 -12.4816449 -14.56191905
333 1 -4.1605483 -12.4816449 -12.4816449
334 1 -4.1605483 -10.40137075 -10.40137075
335 1 -2.08027415 -12.4816449 -10.40137075
336 1 -2.08027415 -10.40137075 -12.4816449
337 1 -4.1605483 -12.4816449 -8.3210966
338 1 -4.1605483 -10.40137075 -6.24082245
339 1 -2.08027415 -12.4816449 -6.24082245
340 1 -2.08027415 -10.40137075 -8.3210966
341 1 -4.1605483 -12.4816449 -4.1605483
342 1 -4.1605483 -10.40137075 -2.08027415
343 1 -2.08027415 -12.4816449 -2.08027415
344 1 -2.08027415 -10.40137075 -4.1605483
345 1 -4.1605483 -12.4816449 0.0
346 1 -4.1605483 -10.40137075 2.08027415
347 1 -2.08027415 -12.4816449 2.08027415
348 1 -2.08027415 -10.40137075 0.0
349 1 -4.1605483 -12.4816449 4.1605483
350 1 -4.1605483 -10.40137075 6.24082245
351 1 -2.08027415 -12.4816449 6.24082245
352 1 -2.08027415 -10.40137075 4.1605483
353 1 -4.1605483 -12.4816449 8.3210966
354 1 -4.1605483 -10.40137075 10.40137075
355 1 -2.08027415 -12.4816449 10.40137075
356 1 -2.08027415 -10.40137075 8.3210966
357 1 -4.1605483 -12.4816449 12.4816449
358 1 -4.1605483 -10.40137075 14.56191905
359 1 -2.08027415 -12.4816449 14.56191905
360 1 -2.08027415 -10.40137075 12.4816449
361 1 -4.1605483 -6.24082245 -14.56191905
362 1 -2.08027415 -8.3210966 -14.56191905
363 1 -4.1605483 -8.3210966 -12.4816449
364 1 -4.1605483 -6.24082245 -10.40137075
365 1 -2.08027415 -8.3210966 -10.40137075
366 1 -2.08027415 -6.24082245 -12.4816449
367 1 -4.1605483 -8.3210966 -8.3210966
368 1 -4.1605483 -6.24082245 -6.24082245
369 1 -2.08027415 -8.3210966 -6.24082245
370 1 -2.08027415 -6.24082245 -8.3210966
371 1 -4.1605483 -8.3210966 -4.1605483
372 1 -4.1605483 -6.24082245 -2.08027415
373 1 -2.08027415 -8.3210966 -2.08027415
374 1 -2.08027415 -6.24082245 -4.1605483
375 1 -4.1605483 -8.3210966 0.0
376 1 -4.1605483 -6.24082245 2.08027415
377 1 -2.08027415 -8.3210966 2.08027415
378 1 -2.08027415 -6.24082245 0.0
379 1 -4.1605483 -8.3210966 4.1605483
380 1 -4.1605483 -6.24082245 6.24082245
381 1 -2.08027415 -8.3210966 6.24082245
382 1 -2.08027415 -6.24082245 4.1605483
383 1 -4.1605483 -8.3210966 8.3210966
384 1 -4.1605483 -6.24082245 10.40137075
385 1 -2.08027415 -8.3210966 10.40137075
386 1 -2.08027415 -6.24082245 8.3210966
387 1 -4.1605483 -8.3210966 12.4816449
388 1 -4.1605483 -6.24082245 14.56191905
389 1 -2.08027415 -8.3210966 14.56191905
390 1 -2.08027415 -6.24082245 12.4816449
391 1 -4.1605483 -2.08027415 -14.56191905
392 1 -2.08027415 -4.1605483 -14.56191905
393 1 -4.1605483 -4.1605483 -12.4816449
394 1 -4.1605483 -2.08027415 -10.40137075
395 1 -2.08027415 -4.1605483 -10.40137075
396 1 -2.08027415 -2.08027415 -12.4816449
397 1 -4.1605483 -4.1605483 -8.3210966
398 1 -4.1605483 -2.08027415 -6.24082245
399 1 -2.08027415 -4.1605483 -6.24082245
400 1 -2.08027415 -2.08027415 -8.3210966
401 1 -4.1605483 -4.1605483 -4.1605483
402 1 -4.1605483 -2.08027415 -2.08027415
403 1 -2.08027415 -4.1605483 -2.08027415
404 1 -2.08027415 -2.08027415 -4.1605483
405 1 -4.1605483 -4.1605483 0.0
406 1 -4.1605483 -2.08027415 2.08027415
407 1 -2.08027415 -4.1605483 2.08027415
408 1 -2.08027415 -2.08027415 0.0
409 1 -4.1605483 -4.1605483 4.1605483
410 1 -4.1605483 -2.08027415 6.24082245
411 1 -2.08027415 -4.1605483 6.24082245
412 1 -2.08027415 -2.08027415 4.1605483
413 1 -4.1605483 -4.1605483 8.3210966
414 1 -4.1605483 -2.08027415 10.40137075
415 1 -2.08027415 -4.1605483 10.40137075
416 1 -2.08027415 -2.08027415 8.3210966
417 1 -4.1605483 -4.1605483 12.4816449
418 1 -4.1605483 -2.08027415 14.56191905
419 1 -2.08027415 -4.1605483 14.56191905
420 1 -2.08027415 -2.08027415 12.4816449
421 1 -4.1605483 2.08027415 -14.56191905
422 1 -2.08027415 0.0 -14.56191905
423 1 -4.1605483 0.0 -12.4816449
424 1 -4.1605483 2.08027415 -10.40137075
425 1 -2.08027415 0.0 -10.40137075
426 1 -2.08027415 2.08027415 -12.4816449
427 1 -4.1605483 0.0 -8.3210966
428 1 -4.1605483 2.08027415 -6.24082245
429 1 -2.08027415 0.0 -6.24082245
430 1 -2.08027415 2.08027415 -8.3210966
431 1 -4.1605483 0.0 -4.1605483
432 1 -4.1605483 2.08027415 -2.08027415
433 1 -2.08027415 0.0 -2.08027415
434 1 -2.08027415 2.08027415 -4.1605483
435 1 -4.1605483 0.0 0.0
436 1 -4.1605483 2.08027415 2.08027415
437 1 -2.08027415 0.0 2.08027415
438 1 -2.08027415 2.08027415 0.0
439 1 -4.1605483 0.0 4.1605483
440 1 -4.1605483 2.08027415 6.24082245
441 1 -2.08027415 0.0 6.24082245
442 1 -2.08027415 2.08027415 4.1605483
443 1 -4.1605483 0.0 8.3210966
444 1 -4.1605483 2.08027415 10.40137075
445 1 -2.08027415 0.0 10.40137075
446 1 -2.08027415 2.08027415 8.3210966
447 1 -4.1605483 0.0 12.4816449
448 1 -4.1605483 2.08027415 14.56191905
449 1 -2.08027415 0.0 14.56191905
450 1 -2.08027415 2.08027415 12.4816449
451 1 -4.1605483 6.24082245 -14.56191905
452 1 -2.08027415 4.1605483 -14.56191905
453 1 -4.1605483 4.1605483 -12.4816449
454 1 -4.1605483 6.24082245 -10.40137075
455 1 -2.08027415 4.1605483 -10.40137075
456 1 -2.08027415 6.24082245 -12.4816449
457 1 -4.1605483 4.1605483 -8.3210966
458 1 -4.1605483 6.24082245 -6.24082245
459 1 -2.08027415 4.1605483 -6.24082245
460 1 -2.08027415 6.24082245 -8.3210966
461 1 -4.1605483 4.1605483 -4.1605483
462 1 -4.1605483 6.24082245 -2.08027415
463 1 -2.08027415 4.1605483 -2.08027415
464 1 -2.08027415 6.24082245 -4.1605483
465 1 -4.1605483 4.1605483 0.0
466 1 -4.1605483 6.24082245 2.08027415
467 1 -2.08027415 4.1605483 2.08027415
468 1 -2.08027415 6.24082245 0.0
469 1 -4.1605483 4.1605483 4.1605483
470 1 -4.1605483 6.24082245 6.24082245
471 1 -2.08027415 4.1605483 6.24082245
472 1 -2.08027415 6.24082245 4.1605483
473 1 -4.1605483 4.1605483 8.3210966
474 1 -4.1605483 6.24082245 10.40137075
475 1 -2.08027415 4.1605483 10.40137075
476 1 -2.08027415 6.24082245 8.3210966
477 1 -4.1605483 4.1605483 12.4816449
478 1 -4.1605483 6.24082245 14.56191905
479 1 -2.08027415 4.1605483 14.56191905
480 1 -2.08027415 6.24082245 12.4816449
481 1 -4.1605483 10.40137075 -14.56191905
482 1 -2.08027415 8.3210966 -14.56191905
483 1 -4.1605483 8.3210966 -12.4816449
484 1 -4.1605483 10.40137075 -10.40137075
485 1 -2.08027415 8.3210966 -10.40137075
486 1 -2.08027415 10.40137075 -12.4816449
487 1 -4.1605483 8.3210966 -8.3210966
488 1 -4.1605483 10.40137075 -6.24082245
489 1 -2.08027415 8.3210966 -6.24082245
490 1 -2.08027415 10.40137075 -8.3210966
491 1 -4.1605483 8.3210966 -4.1605483
492 1 -4.1605483 10.40137075 -2.08027415
493 1 -2.08027415 8.3210966 -2.08027415
494 1 -2.08027415 10.40137075 -4.1605483
495 1 -4.1605483 8.3210966 0.0
496 1 -4.1605483 10.40137075 2.08027415
497 1 -2.08027415 8.3210966 2.08027415
498 1 -2.08027415 10.40137075 0.0
499 1 -4.1605483 8.3210966 4.1605483
500 1 -4.1605483 10.40137075 6.24082245
501 1 -2.08027415 8.3210966 6.24082245
502 1 -2.08027415 10.40137075 4.1605483
503 1 -4.1605483 8.3210966 8.3210966
504 1 -4.1605483 10.40137075 10.40137075
505 1 -2.08027415 8.3210966 10.40137075
506 1 -2.08027415 10.40137075 8.3210966
507 1 -4.1605483 8.3210966 12.4816449
508 1 -4.1605483 10.40137075 14.56191905
509 1 -2.08027415 8.3210966 14.56191905
510 1 -2.08027415 10.40137075 12.4816449
511 1 -4.1605483 14.56191905 -14.56191905
512 1 -2.08027415 12.4816449 -14.56191905
513 1 -4.1605483 12.4816449 -12.4816449
514 1 -4.1605483 14.56191905 -10.40137075
515 1 -2.08027415 12.4816449 -10.40137075
516 1 -2.08027415 14.56191905 -12.4816449
517 1 -4.1605483 12.4816449 -8.3210966
518 1 -4.1605483 14.56191905 -6.24082245
519 1 -2.08027415 12.4816449 -6.24082245
520 1 -2.08027415 14.56191905 -8.3210966
521 1 -4.1605483 12.4816449 -4.1605483
522 1 -4.1605483 14.56191905 -2.08027415
523 1 -2.08027415 12.4816449 -2.08027415
524 1 -2.08027415 14.56191905 -4.1605483
525 1 -4.1605483 12.4816449 0.0
526 1 -4.1605483 14.56191905 2.08027415
527 1 -2.08027415 12.4816449 2.08027415
528 1 -2.08027415 14.56191905 0.0
529 1 -4.1605483 12.4816449 4.1605483
530 1 -4.1605483 14.56191905 6.24082245
531 1 -2.08027415 12.4816449 6.24082245
532 1 -2.08027415 14.56191905 4.1605483
533 1 -4.1605483 12.4816449 8.3210966
534 1 -4.1605483 14.56191905 10.40137075
535 1 -2.08027415 12.4816449 10.40137075
536 1 -2.08027415 14.56191905 8.3210966
537 1 -4.1605483 12.4816449 12.4816449
538 1 -4.1605483 14.56191905 14.56191905
539 1 -2.08027415 12.4816449 14.56191905
540 1 -2.08027415 14.56191905 12.4816449
541 1 -4.1605483 18.72246735 -14.56191905
542 1 -2.08027415 16.6421932 -14.56191905
543 1 -4.1605483 16.6421932 -12.4816449
544 1 -4.1605483 18.72246735 -10.40137075
545 1 -2.08027415 16.6421932 -10.40137075
546 1 -2.08027415 18.72246735 -12.4816449
547 1 -4.1605483 16.6421932 -8.3210966
548 1 -4.1605483 18.72246735 -6.24082245
549 1 -2.08027415 16.6421932 -6.24082245
550 1 -2.08027415 18.72246735 -8.3210966
551 1 -4.1605483 16.6421932 -4.1605483
552 1 -4.1605483 18.72246735 -2.08027415
553 1 -2.08027415 16.6421932 -2.08027415
554 1 -2.08027415 18.72246735 -4.1605483
555 1 -4.1605483 16.6421932 0.0
556 1 -4.1605483 18.72246735 2.08027415
557 1 -2.08027415 16.6421932 2.08027415
558 1 -2.08027415 18.72246735 0.0
559 1 -4.1605483 16.6421932 4.1605483
560 1 -4.1605483 18.72246735 6.24082245
561 1 -2.08027415 16.6421932 6.24082245
562 1 -2.08027415 18.72246735 4.1605483
563 1 -4.1605483 16.6421932 8.3210966
564 1 -4.1605483 18.72246735 10.40137075
565 1 -2.08027415 16.6421932 10.40137075
566 1 -2.08027415 18.72246735 8.3210966
567 1 -4.1605483 16.6421932 12.4816449
568 1 -4.1605483 18.72246735 14.56191905
569 1 -2.08027415 16.6421932 14.56191905
570 1 -2.08027415 18.72246735 12.4816449
571 1 0.0 -18.72246735 -14.56191905
572 1 0.0 -18.72246735 -10.40137075
573 1 2.08027415 -18.72246735 -12.4816449
574 1 0.0 -18.72246735 -6.24082245
575 1 2.08027415 -18.72246735 -8.3210966
576 1 0.0 -18.72246735 -2.08027415
577 1 2.08027415 -18.72246735 -4.1605483
578 1 0.0 -18.72246735 2.08027415
579 1 2.08027415 -18.72246735 0.0
580 1 0.0 -18.72246735 6.24082245
581 1 2.08027415 -18.72246735 4.1605483
582 1 0.0 -18.72246735 10.40137075
583 1 2.08027415 -18.72246735 8.3210966
584 1 0.0 -18.72246735 14.56191905
585 1 2.08027415 -18.72246735 12.4816449
586 1 0.0 -14.56191905 -14.56191905
587 1 2.08027415 -16.6421932 -14.56191905
588 1 0.0 -16.6421932 -12.4816449
589 1 0.0 -14.56191905 -10.40137075
590 1 2.08027415 -16.6421932 -10.40137075
591 1 2.08027415 -14.56191905 -12.4816449
592 1 0.0 -16.6421932 -8.3210966
593 1 0.0 -14.56191905 -6.24082245
594 1 2.08027415 -16.6421932 -6.24082245
595 1 2.08027415 -14.56191905 -8.3210966
596 1 0.0 -16.6421932 -4.1605483
597 1 0.0 -14.56191905 -2.08027415
598 1 2.08027415 -16.6421932 -2.08027415
599 1 2.08027415 -14.56191905 -4.1605483
600 1 0.0 -16.6421932 0.0
601 1 0.0 -14.56191905 2.08027415
602 1 2.08027415 -16.6421932 2.08027415
603 1 2.08027415 -14.56191905 0.0
604 1 0.0 -16.6421932 4.1605483
605 1 0.0 -14.56191905 6.24082245
606 1 2.08027415 -16.6421932 6.24082245
607 1 2.08027415 -14.56191905 4.1605483
608 1 0.0 -16.6421932 8.3210966
609 1 0.0 -14.56191905 10.40137075
610 1 2.08027415 -16.6421932 10.40137075
611 1 2.08027415 -14.56191905 8.3210966
612 1 0.0 -16.6421932 12.4816449
613 1 0.0 -14.56191905 14.56191905
614 1 2.08027415 -16.6421932 14.56191905
615 1 2.08027415 -14.56191905 12.4816449
616 1 0.0 -10.40137075 -14.56191905
617 1 2.08027415 -12.4816449 -14.56191905
618 1 0.0 -12.4816449 -12.4816449
619 1 0.0 -10.40137075 -10.40137075
620 1 2.08027415 -12.4816449 -10.40137075
621 1 2.08027415 -10.40137075 -12.4816449
622 1 0.0 -12.4816449 -8.3210966
623 1 0.0 -10.40137075 -6.24082245
624 1 2.08027415 -12.4816449 -6.24082245
625 1 2.08027415 -10.40137075 -8.3210966
626 1 0.0 -12.4816449 -4.1605483
627 1 0.0 -10.40137075 -2.08027415
628 1 2.08027415 -12.4816449 -2.08027415
629 1 2.08027415 -10.40137075 -4.1605483
630 1 0.0 -12.4816449 0.0
631 1 0.0 -10.40137075 2.08027415
632 1 2.08027415 -12.4816449 2.08027415
633 1 2.08027415 -10.40137075 0.0
634 1 0.0 -12.4816449 4.1605483
635 1 0.0 -10.40137075 6.24082245
636 1 2.08027415 -12.4816449 6.24082245
637 1 2.08027415 -10.40137075 4.1605483
638 1 0.0 -12.4816449 8.3210966
639 1 0.0 -10.40137075 10.40137075
640 1 2.08027415 -12.4816449 10.40137075
641 1 2.08027415 -10.40137075 8.3210966
642 1 0.0 -12.4816449 12.4816449
643 1 0.0 -10.40137075 14.56191905
644 1 2.08027415 -12.4816449 14.56191905
645 1 2.08027415 -10.40137075 12.4816449
646 1 0.0 -6.24082245 -14.56191905
647 1 2.08027415 -8.3210966 -14.56191905
648 1 0.0 -8.3210966 -12.4816449
649 1 0.0 -6.24082245 -10.40137075
650 1 2.08027415 -8.3210966 -10.40137075
651 1 2.08027415 -6.24082245 -12.4816449
652 1 0.0 -8.3210966 -8.3210966
653 1 0.0 -6.24082245 -6.24082245
654 1 2.08027415 -8.3210966 -6.24082245
655 1 2.08027415 -6.24082245 -8.3210966
656 1 0.0 -8.3210966 -4.1605483
657 1 0.0 -6.24082245 -2.08027415
658 1 2.08027415 -8.3210966 -2.08027415
659 1 2.08027415 -6.24082245 -4.1605483
660 1 0.0 -8.3210966 0.0
661 1 0.0 -6.24082245 2.08027415
662 1 2.08027415 -8.3210966 2.08027415
663 1 2.08027415 -6.24082245 0.0
664 1 0.0 -8.3210966 4.1605483
665 1 0.0 -6.24082245 6.24082245
666 1 2.08027415 -8.3210966 6.24082245
667 1 2.08027415 -6.24082245 4.1605483
668 1 0.0 -8.3210966 8.3210966
669 1 0.0 -6.24082245 10.40137075
670 1 2.08027415 -8.3210966 10.40137075
671 1 2.08027415 -6.24082245 8.3210966
672 1 0.0 -8.3210966 12.4816449
673 1 0.0 -6.24082245 14.56191905
674 1 2.08027415 -8.3210966 14.56191905
675 1 2.08027415 -6.24082245 12.4816449
676 1 0.0 -2.08027415 -14.56191905
677 1 2.08027415 -4.1605483 -14.56191905
678 1 0.0 -4.1605483 -12.4816449
679 1 0.0 -2.08027415 -10.40137075
680 1 2.08027415 -4.1605483 -10.40137075
681 1 2.08027415 -2.08027415 -12.4816449
682 1 0.0 -4.1605483 -8.3210966
683 1 0.0 -2.08027415 -6.24082245
684 1 2.08027415 -4.1605483 -6.24082245
685 1 2.08027415 -2.08027415 -8.3210966
686 1 0.0 -4.1605483 -4.1605483
687 1 0.0 -2.08027415 -2.08027415
688 1 2.08027415 -4.1605483 -2.08027415
689 1 2.08027415 -2.08027415 -4.1605483
690 1 0.0 -4.1605483 0.0
691 1 0.0 -2.08027415 2.08027415
692 1 2.08027415 -4.1605483 2.08027415
693 1 2.08027415 -2.08027415 0.0
694 1 0.0 -4.1605483 4.1605483
695 1 0.0 -2.08027415 6.24082245
696 1 2.08027415 -4.1605483 6.24082245
697 1 2.08027415 -2.08027415 4.1605483
698 1 0.0 -4.1605483 8.3210966
699 1 0.0 -2.08027415 10.40137075
700 1 2.08027415 -4.1605483 10.40137075
701 1 2.08027415 -2.08027415 8.3210966
702 1 0.0 -4.1605483 12.4816449
703 1 0.0 -2.08027415 14.56191905
704 1 2.08027415 -4.1605483 14.56191905
705 1 2.08027415 -2.08027415 12.4816449
706 1 0.0 2.08027415 -14.56191905
707 1 2.08027415 0.0 -14.56191905
708 1 0.0 0.0 -12.4816449
709 1 0.0 2.08027415 -10.40137075
710 1 2.08027415 0.0 -10.40137075
711 1 2.08027415 2.08027415 -12.4816449
712 1 0.0 0.0 -8.3210966
713 1 0.0 2.08027415 -6.24082245
714 1 2.08027415 0.0 -6.24082245
715 1 2.08027415 2.08027415 -8.3210966
716 1 0.0 0.0 -4.1605483
717 1 0.0 2.08027415 -2.08027415
718 1 2.08027415 0.0 -2.08027415
719 1 2.08027415 2.08027415 -4.1605483
720 1 0.0 0.0 0.0
721 1 0.0 2.08027415 2.08027415
722 1 2.08027415 0.0 2.08027415
723 1 2.08027415 2.08027415 0.0
724 1 0.0 0.0 4.1605483
725 1 0.0 2.08027415 6.24082245
726 1 2.08027415 0.0 6.24082245
727 1 2.08027415 2.08027415 4.1605483
728 1 0.0 0.0 8.3210966
729 1 0.0 2.08027415 10.40137075
730 1 2.08027415 0.0 10.40137075
731 1 2.08027415 2.08027415 8.3210966
732 1 0.0 0.0 12.4816449
733 1 0.0 2.08027415 14.56191905
734 1 2.08027415 0.0 14.56191905
735 1 2.08027415 2.08027415 12.4816449
736 1 0.0 6.24082245 -14.56191905
737 1 2.08027415 4.1605483 -14.56191905
738 1 0.0 4.1605483 -12.4816449
739 1 0.0 6.24082245 -10.40137075
740 1 2.08027415 4.1605483 -10.40137075
741 1 2.08027415 6.24082245 -12.4816449
742 1 0.0 4.1605483 -8.3210966
743 1 0.0 6.24082245 -6.24082245
744 1 2.08027415 4.1605483 -6.24082245
745 1 2.08027415 6.24082245 -8.3210966
746 1 0.0 4.1605483 -4.1605483
747 1 0.0 6.24082245 -2.08027415
748 1 2.08027415 4.1605483 -2.08027415
749 1 2.08027415 6.24082245 -4.1605483
750 1 0.0 4.1605483 0.0
751 1 0.0 6.24082245 2.08027415
752 1 2.08027415 4.1605483 2.08027415
753 1 2.08027415 6.24082245 0.0
754 1 0.0 4.1605483 4.1605483
755 1 0.0 6.24082245 6.24082245
756 1 2.08027415 4.1605483 6.24082245
757 1 2.08027415 6.24082245 4.1605483
758 1 0.0 4.1605483 8.3210966
759 1 0.0 6.24082245 10.40137075
760 1 2.08027415 4.1605483 10.40137075
761 1 2.08027415 6.24082245 8.3210966
762 1 0.0 4.1605483 12.4816449
763 1 0.0 6.24082245 14.56191905
764 1 2.08027415 4.1605483 14.56191905
765 1 2.08027415 6.24082245 12.4816449
766 1 0.0 10.40137075 -14.56191905
767 1 2.08027415 8.3210966 -14.56191905
768 1 0.0 8.3210966 -12.4816449
769 1 0.0 10.40137075 -10.40137075
770 1 2.08027415 8.3210966 -10.40137075
771 1 2.08027415 10.40137075 -12.4816449
772 1 0.0 8.3210966 -8.3210966
773 1 0.0 10.40137075 -6.24082245
774 1 2.08027415 8.3210966 -6.24082245
775 1 2.08027415 10.40137075 -8.3210966