# Cluster_Combination Program by NingWang
 1771 atoms
 1 atom types
 -100 100 xlo xhi
 -100 100 ylo yhi
 -100 100 zlo zhi

 Atoms  # atomic

1 1 -20.8027415 -20.8027415 -20.8027415
2 1 -20.8027415 -18.72246735 -18.72246735
3 1 -18.72246735 -20.8027415 -18.72246735
4 1 -18.72246735 -18.72246735 -20.8027415
5 1 -18.72246735 -18.72246735 -16.6421932
6 1 -18.72246735 -16.6421932 -18.72246735
7 1 -20.8027415 -16.6421932 -16.6421932
8 1 -20.8027415 -14.56191905 -14.56191905
9 1 -18.72246735 -16.6421932 -14.56191905
10 1 -18.72246735 -14.56191905 -16.6421932
11 1 -18.72246735 -14.56191905 -12.4816449
12 1 -18.72246735 -12.4816449 -14.56191905
13 1 -20.8027415 -12.4816449 -12.4816449
14 1 -20.8027415 -10.40137075 -10.40137075
15 1 -18.72246735 -12.4816449 -10.40137075
16 1 -18.72246735 -10.40137075 -12.4816449
17 1 -18.72246735 -10.40137075 -8.3210966
18 1 -18.72246735 -8.3210966 -10.40137075
19 1 -20.8027415 -8.3210966 -8.3210966
20 1 -20.8027415 -6.24082245 -6.24082245
21 1 -18.72246735 -8.3210966 -6.24082245
22 1 -18.72246735 -6.24082245 -8.3210966
23 1 -18.72246735 -6.24082245 -4.1605483
24 1 -18.72246735 -4.1605483 -6.24082245
25 1 -20.8027415 -4.1605483 -4.1605483
26 1 -20.8027415 -2.08027415 -2.08027415
27 1 -18.72246735 -4.1605483 -2.08027415
28 1 -18.72246735 -2.08027415 -4.1605483
29 1 -18.72246735 -2.08027415 0.0
30 1 -18.72246735 0.0 -2.08027415
31 1 -20.8027415 0.0 0.0
32 1 -20.8027415 2.08027415 2.08027415
33 1 -18.72246735 0.0 2.08027415
34 1 -18.72246735 2.08027415 0.0
35 1 -18.72246735 2.08027415 4.1605483
36 1 -18.72246735 4.1605483 2.08027415
37 1 -20.8027415 4.1605483 4.1605483
38 1 -20.8027415 6.24082245 6.24082245
39 1 -18.72246735 4.1605483 6.24082245
40 1 -18.72246735 6.24082245 4.1605483
41 1 -18.72246735 6.24082245 8.3210966
42 1 -18.72246735 8.3210966 6.24082245
43 1 -20.8027415 8.3210966 8.3210966
44 1 -20.8027415 10.40137075 10.40137075
45 1 -18.72246735 8.3210966 10.40137075
46 1 -18.72246735 10.40137075 8.3210966
47 1 -18.72246735 10.40137075 12.4816449
48 1 -18.72246735 12.4816449 10.40137075
49 1 -20.8027415 12.4816449 12.4816449
50 1 -20.8027415 14.56191905 14.56191905
51 1 -18.72246735 12.4816449 14.56191905
52 1 -18.72246735 14.56191905 12.4816449
53 1 -18.72246735 14.56191905 16.6421932
54 1 -18.72246735 16.6421932 14.56191905
55 1 -20.8027415 16.6421932 16.6421932
56 1 -20.8027415 18.72246735 18.72246735
57 1 -18.72246735 16.6421932 18.72246735
58 1 -18.72246735 18.72246735 16.6421932
59 1 -18.72246735 18.72246735 20.8027415
60 1 -18.72246735 20.8027415 18.72246735
61 1 -20.8027415 20.8027415 20.8027415
62 1 -16.6421932 -18.72246735 -18.72246735
63 1 -16.6421932 -20.8027415 -16.6421932
64 1 -16.6421932 -18.72246735 -14.56191905
65 1 -14.56191905 -20.8027415 -14.56191905
66 1 -14.56191905 -18.72246735 -16.6421932
67 1 -14.56191905 -18.72246735 -12.4816449
68 1 -16.6421932 -16.6421932 -20.8027415
69 1 -16.6421932 -14.56191905 -18.72246735
70 1 -14.56191905 -16.6421932 -18.72246735
71 1 -14.56191905 -14.56191905 -20.8027415
72 1 -16.6421932 -16.6421932 -16.6421932
73 1 -16.6421932 -14.56191905 -14.56191905
74 1 -14.56191905 -16.6421932 -14.56191905
75 1 -14.56191905 -14.56191905 -16.6421932
76 1 -16.6421932 -16.6421932 -12.4816449
77 1 -16.6421932 -14.56191905 -10.40137075
78 1 -14.56191905 -16.6421932 -10.40137075
79 1 -14.56191905 -14.56191905 -12.4816449
80 1 -14.56191905 -14.56191905 -8.3210966
81 1 -14.56191905 -12.4816449 -18.72246735
82 1 -16.6421932 -12.4816449 -16.6421932
83 1 -16.6421932 -10.40137075 -14.56191905
84 1 -14.56191905 -12.4816449 -14.56191905
85 1 -14.56191905 -10.40137075 -16.6421932
86 1 -16.6421932 -12.4816449 -12.4816449
87 1 -16.6421932 -10.40137075 -10.40137075
88 1 -14.56191905 -12.4816449 -10.40137075
89 1 -14.56191905 -10.40137075 -12.4816449
90 1 -16.6421932 -12.4816449 -8.3210966
91 1 -16.6421932 -10.40137075 -6.24082245
92 1 -14.56191905 -12.4816449 -6.24082245
93 1 -14.56191905 -10.40137075 -8.3210966
94 1 -14.56191905 -10.40137075 -4.1605483
95 1 -14.56191905 -8.3210966 -14.56191905
96 1 -16.6421932 -8.3210966 -12.4816449
97 1 -16.6421932 -6.24082245 -10.40137075
98 1 -14.56191905 -8.3210966 -10.40137075
99 1 -14.56191905 -6.24082245 -12.4816449
100 1 -16.6421932 -8.3210966 -8.3210966
101 1 -16.6421932 -6.24082245 -6.24082245
102 1 -14.56191905 -8.3210966 -6.24082245
103 1 -14.56191905 -6.24082245 -8.3210966
104 1 -16.6421932 -8.3210966 -4.1605483
105 1 -16.6421932 -6.24082245 -2.08027415
106 1 -14.56191905 -8.3210966 -2.08027415
107 1 -14.56191905 -6.24082245 -4.1605483
108 1 -14.56191905 -6.24082245 0.0
109 1 -14.56191905 -4.1605483 -10.40137075
110 1 -16.6421932 -4.1605483 -8.3210966
111 1 -16.6421932 -2.08027415 -6.24082245
112 1 -14.56191905 -4.1605483 -6.24082245
113 1 -14.56191905 -2.08027415 -8.3210966
114 1 -16.6421932 -4.1605483 -4.1605483
115 1 -16.6421932 -2.08027415 -2.08027415
116 1 -14.56191905 -4.1605483 -2.08027415
117 1 -14.56191905 -2.08027415 -4.1605483
118 1 -16.6421932 -4.1605483 0.0
119 1 -16.6421932 -2.08027415 2.08027415
120 1 -14.56191905 -4.1605483 2.08027415
121 1 -14.56191905 -2.08027415 0.0
122 1 -14.56191905 -2.08027415 4.1605483
123 1 -14.56191905 0.0 -6.24082245
124 1 -16.6421932 0.0 -4.1605483
125 1 -16.6421932 2.08027415 -2.08027415
126 1 -14.56191905 0.0 -2.08027415
127 1 -14.56191905 2.08027415 -4.1605483
128 1 -16.6421932 0.0 0.0
129 1 -16.6421932 2.08027415 2.08027415
130 1 -14.56191905 0.0 2.08027415
131 1 -14.56191905 2.08027415 0.0
132 1 -16.6421932 0.0 4.1605483
133 1 -16.6421932 2.08027415 6.24082245
134 1 -14.56191905 0.0 6.24082245
135 1 -14.56191905 2.08027415 4.1605483
136 1 -14.56191905 2.08027415 8.3210966
137 1 -14.56191905 4.1605483 -2.08027415
138 1 -16.6421932 4.1605483 0.0
139 1 -16.6421932 6.24082245 2.08027415
140 1 -14.56191905 4.1605483 2.08027415
141 1 -14.56191905 6.24082245 0.0
142 1 -16.6421932 4.1605483 4.1605483
143 1 -16.6421932 6.24082245 6.24082245
144 1 -14.56191905 4.1605483 6.24082245
145 1 -14.56191905 6.24082245 4.1605483
146 1 -16.6421932 4.1605483 8.3210966
147 1 -16.6421932 6.24082245 10.40137075
148 1 -14.56191905 4.1605483 10.40137075
149 1 -14.56191905 6.24082245 8.3210966
150 1 -14.56191905 6.24082245 12.4816449
151 1 -14.56191905 8.3210966 2.08027415
152 1 -16.6421932 8.3210966 4.1605483
153 1 -16.6421932 10.40137075 6.24082245
154 1 -14.56191905 8.3210966 6.24082245
155 1 -14.56191905 10.40137075 4.1605483
156 1 -16.6421932 8.3210966 8.3210966
157 1 -16.6421932 10.40137075 10.40137075
158 1 -14.56191905 8.3210966 10.40137075
159 1 -14.56191905 10.40137075 8.3210966
160 1 -16.6421932 8.3210966 12.4816449
161 1 -16.6421932 10.40137075 14.56191905
162 1 -14.56191905 8.3210966 14.56191905
163 1 -14.56191905 10.40137075 12.4816449
164 1 -14.56191905 10.40137075 16.6421932
165 1 -14.56191905 12.4816449 6.24082245
166 1 -16.6421932 12.4816449 8.3210966
167 1 -16.6421932 14.56191905 10.40137075
168 1 -14.56191905 12.4816449 10.40137075
169 1 -14.56191905 14.56191905 8.3210966
170 1 -16.6421932 12.4816449 12.4816449
171 1 -16.6421932 14.56191905 14.56191905
172 1 -14.56191905 12.4816449 14.56191905
173 1 -14.56191905 14.56191905 12.4816449
174 1 -16.6421932 12.4816449 16.6421932
175 1 -16.6421932 14.56191905 18.72246735
176 1 -14.56191905 12.4816449 18.72246735
177 1 -14.56191905 14.56191905 16.6421932
178 1 -14.56191905 14.56191905 20.8027415
179 1 -14.56191905 16.6421932 10.40137075
180 1 -16.6421932 16.6421932 12.4816449
181 1 -16.6421932 18.72246735 14.56191905
182 1 -14.56191905 16.6421932 14.56191905
183 1 -14.56191905 18.72246735 12.4816449
184 1 -16.6421932 16.6421932 16.6421932
185 1 -16.6421932 18.72246735 18.72246735
186 1 -14.56191905 16.6421932 18.72246735
187 1 -14.56191905 18.72246735 16.6421932
188 1 -16.6421932 16.6421932 20.8027415
189 1 -14.56191905 20.8027415 14.56191905
190 1 -16.6421932 20.8027415 16.6421932
191 1 -12.4816449 -18.72246735 -14.56191905
192 1 -12.4816449 -20.8027415 -12.4816449
193 1 -12.4816449 -18.72246735 -10.40137075
194 1 -10.40137075 -20.8027415 -10.40137075
195 1 -10.40137075 -18.72246735 -12.4816449
196 1 -10.40137075 -18.72246735 -8.3210966
197 1 -12.4816449 -14.56191905 -18.72246735
198 1 -12.4816449 -16.6421932 -16.6421932
199 1 -12.4816449 -14.56191905 -14.56191905
200 1 -10.40137075 -16.6421932 -14.56191905
201 1 -10.40137075 -14.56191905 -16.6421932
202 1 -12.4816449 -16.6421932 -12.4816449
203 1 -12.4816449 -14.56191905 -10.40137075
204 1 -10.40137075 -16.6421932 -10.40137075
205 1 -10.40137075 -14.56191905 -12.4816449
206 1 -12.4816449 -16.6421932 -8.3210966
207 1 -12.4816449 -14.56191905 -6.24082245
208 1 -10.40137075 -16.6421932 -6.24082245
209 1 -10.40137075 -14.56191905 -8.3210966
210 1 -10.40137075 -14.56191905 -4.1605483
211 1 -12.4816449 -12.4816449 -20.8027415
212 1 -12.4816449 -10.40137075 -18.72246735
213 1 -10.40137075 -12.4816449 -18.72246735
214 1 -10.40137075 -10.40137075 -20.8027415
215 1 -12.4816449 -12.4816449 -16.6421932
216 1 -12.4816449 -10.40137075 -14.56191905
217 1 -10.40137075 -12.4816449 -14.56191905
218 1 -10.40137075 -10.40137075 -16.6421932
219 1 -12.4816449 -12.4816449 -12.4816449
220 1 -12.4816449 -10.40137075 -10.40137075
221 1 -10.40137075 -12.4816449 -10.40137075
222 1 -10.40137075 -10.40137075 -12.4816449
223 1 -12.4816449 -12.4816449 -8.3210966
224 1 -12.4816449 -10.40137075 -6.24082245
225 1 -10.40137075 -12.4816449 -6.24082245
226 1 -10.40137075 -10.40137075 -8.3210966
227 1 -12.4816449 -12.4816449 -4.1605483
228 1 -12.4816449 -10.40137075 -2.08027415
229 1 -10.40137075 -12.4816449 -2.08027415
230 1 -10.40137075 -10.40137075 -4.1605483
231 1 -10.40137075 -10.40137075 0.0
232 1 -10.40137075 -8.3210966 -18.72246735
233 1 -12.4816449 -8.3210966 -16.6421932
234 1 -12.4816449 -6.24082245 -14.56191905
235 1 -10.40137075 -8.3210966 -14.56191905
236 1 -10.40137075 -6.24082245 -16.6421932
237 1 -12.4816449 -8.3210966 -12.4816449
238 1 -12.4816449 -6.24082245 -10.40137075
239 1 -10.40137075 -8.3210966 -10.40137075
240 1 -10.40137075 -6.24082245 -12.4816449
241 1 -12.4816449 -8.3210966 -8.3210966
242 1 -12.4816449 -6.24082245 -6.24082245
243 1 -10.40137075 -8.3210966 -6.24082245
244 1 -10.40137075 -6.24082245 -8.3210966
245 1 -12.4816449 -8.3210966 -4.1605483
246 1 -12.4816449 -6.24082245 -2.08027415
247 1 -10.40137075 -8.3210966 -2.08027415
248 1 -10.40137075 -6.24082245 -4.1605483
249 1 -12.4816449 -8.3210966 0.0
250 1 -12.4816449 -6.24082245 2.08027415
251 1 -10.40137075 -8.3210966 2.08027415
252 1 -10.40137075 -6.24082245 0.0
253 1 -10.40137075 -6.24082245 4.1605483
254 1 -10.40137075 -4.1605483 -14.56191905
255 1 -12.4816449 -4.1605483 -12.4816449
256 1 -12.4816449 -2.08027415 -10.40137075
257 1 -10.40137075 -4.1605483 -10.40137075
258 1 -10.40137075 -2.08027415 -12.4816449
259 1 -12.4816449 -4.1605483 -8.3210966
260 1 -12.4816449 -2.08027415 -6.24082245
261 1 -10.40137075 -4.1605483 -6.24082245
262 1 -10.40137075 -2.08027415 -8.3210966
263 1 -12.4816449 -4.1605483 -4.1605483
264 1 -12.4816449 -2.08027415 -2.08027415
265 1 -10.40137075 -4.1605483 -2.08027415
266 1 -10.40137075 -2.08027415 -4.1605483
267 1 -12.4816449 -4.1605483 0.0
268 1 -12.4816449 -2.08027415 2.08027415
269 1 -10.40137075 -4.1605483 2.08027415
270 1 -10.40137075 -2.08027415 0.0
271 1 -12.4816449 -4.1605483 4.1605483
272 1 -12.4816449 -2.08027415 6.24082245
273 1 -10.40137075 -4.1605483 6.24082245
274 1 -10.40137075 -2.08027415 4.1605483
275 1 -10.40137075 -2.08027415 8.3210966
276 1 -10.40137075 0.0 -10.40137075
277 1 -12.4816449 0.0 -8.3210966
278 1 -12.4816449 2.08027415 -6.24082245
279 1 -10.40137075 0.0 -6.24082245
280 1 -10.40137075 2.08027415 -8.3210966
281 1 -12.4816449 0.0 -4.1605483
282 1 -12.4816449 2.08027415 -2.08027415
283 1 -10.40137075 0.0 -2.08027415
284 1 -10.40137075 2.08027415 -4.1605483
285 1 -12.4816449 0.0 0.0
286 1 -12.4816449 2.08027415 2.08027415
287 1 -10.40137075 0.0 2.08027415
288 1 -10.40137075 2.08027415 0.0
289 1 -12.4816449 0.0 4.1605483
290 1 -12.4816449 2.08027415 6.24082245
291 1 -10.40137075 0.0 6.24082245
292 1 -10.40137075 2.08027415 4.1605483
293 1 -12.4816449 0.0 8.3210966
294 1 -12.4816449 2.08027415 10.40137075
295 1 -10.40137075 0.0 10.40137075
296 1 -10.40137075 2.08027415 8.3210966
297 1 -10.40137075 2.08027415 12.4816449
298 1 -10.40137075 4.1605483 -6.24082245
299 1 -12.4816449 4.1605483 -4.1605483
300 1 -12.4816449 6.24082245 -2.08027415
301 1 -10.40137075 4.1605483 -2.08027415
302 1 -10.40137075 6.24082245 -4.1605483
303 1 -12.4816449 4.1605483 0.0
304 1 -12.4816449 6.24082245 2.08027415
305 1 -10.40137075 4.1605483 2.08027415
306 1 -10.40137075 6.24082245 0.0
307 1 -12.4816449 4.1605483 4.1605483
308 1 -12.4816449 6.24082245 6.24082245
309 1 -10.40137075 4.1605483 6.24082245
310 1 -10.40137075 6.24082245 4.1605483
311 1 -12.4816449 4.1605483 8.3210966
312 1 -12.4816449 6.24082245 10.40137075
313 1 -10.40137075 4.1605483 10.40137075
314 1 -10.40137075 6.24082245 8.3210966
315 1 -12.4816449 4.1605483 12.4816449
316 1 -12.4816449 6.24082245 14.56191905
317 1 -10.40137075 4.1605483 14.56191905
318 1 -10.40137075 6.24082245 12.4816449
319 1 -10.40137075 6.24082245 16.6421932
320 1 -10.40137075 8.3210966 -2.08027415
321 1 -12.4816449 8.3210966 0.0
322 1 -12.4816449 10.40137075 2.08027415
323 1 -10.40137075 8.3210966 2.08027415
324 1 -10.40137075 10.40137075 0.0
325 1 -12.4816449 8.3210966 4.1605483
326 1 -12.4816449 10.40137075 6.24082245
327 1 -10.40137075 8.3210966 6.24082245
328 1 -10.40137075 10.40137075 4.1605483
329 1 -12.4816449 8.3210966 8.3210966
330 1 -12.4816449 10.40137075 10.40137075
331 1 -10.40137075 8.3210966 10.40137075
332 1 -10.40137075 10.40137075 8.3210966
333 1 -12.4816449 8.3210966 12.4816449
334 1 -12.4816449 10.40137075 14.56191905
335 1 -10.40137075 8.3210966 14.56191905
336 1 -10.40137075 10.40137075 12.4816449
337 1 -12.4816449 8.3210966 16.6421932
338 1 -12.4816449 10.40137075 18.72246735
339 1 -10.40137075 8.3210966 18.72246735
340 1 -10.40137075 10.40137075 16.6421932
341 1 -10.40137075 10.40137075 20.8027415
342 1 -10.40137075 12.4816449 2.08027415
343 1 -12.4816449 12.4816449 4.1605483
344 1 -12.4816449 14.56191905 6.24082245
345 1 -10.40137075 12.4816449 6.24082245
346 1 -10.40137075 14.56191905 4.1605483
347 1 -12.4816449 12.4816449 8.3210966
348 1 -12.4816449 14.56191905 10.40137075
349 1 -10.40137075 12.4816449 10.40137075
350 1 -10.40137075 14.56191905 8.3210966
351 1 -12.4816449 12.4816449 12.4816449
352 1 -12.4816449 14.56191905 14.56191905
353 1 -10.40137075 12.4816449 14.56191905
354 1 -10.40137075 14.56191905 12.4816449
355 1 -12.4816449 12.4816449 16.6421932
356 1 -12.4816449 14.56191905 18.72246735
357 1 -10.40137075 12.4816449 18.72246735
358 1 -10.40137075 14.56191905 16.6421932
359 1 -12.4816449 12.4816449 20.8027415
360 1 -10.40137075 16.6421932 6.24082245
361 1 -12.4816449 16.6421932 8.3210966
362 1 -12.4816449 18.72246735 10.40137075
363 1 -10.40137075 16.6421932 10.40137075
364 1 -10.40137075 18.72246735 8.3210966
365 1 -12.4816449 16.6421932 12.4816449
366 1 -12.4816449 18.72246735 14.56191905
367 1 -10.40137075 16.6421932 14.56191905
368 1 -10.40137075 18.72246735 12.4816449
369 1 -12.4816449 16.6421932 16.6421932
370 1 -10.40137075 20.8027415 10.40137075
371 1 -12.4816449 20.8027415 12.4816449
372 1 -8.3210966 -18.72246735 -10.40137075
373 1 -8.3210966 -20.8027415 -8.3210966
374 1 -8.3210966 -18.72246735 -6.24082245
375 1 -6.24082245 -20.8027415 -6.24082245
376 1 -6.24082245 -18.72246735 -8.3210966
377 1 -6.24082245 -18.72246735 -4.1605483
378 1 -8.3210966 -14.56191905 -14.56191905
379 1 -8.3210966 -16.6421932 -12.4816449
380 1 -8.3210966 -14.56191905 -10.40137075
381 1 -6.24082245 -16.6421932 -10.40137075
382 1 -6.24082245 -14.56191905 -12.4816449
383 1 -8.3210966 -16.6421932 -8.3210966
384 1 -8.3210966 -14.56191905 -6.24082245
385 1 -6.24082245 -16.6421932 -6.24082245
386 1 -6.24082245 -14.56191905 -8.3210966
387 1 -8.3210966 -16.6421932 -4.1605483
388 1 -8.3210966 -14.56191905 -2.08027415
389 1 -6.24082245 -16.6421932 -2.08027415
390 1 -6.24082245 -14.56191905 -4.1605483
391 1 -6.24082245 -14.56191905 0.0
392 1 -8.3210966 -10.40137075 -18.72246735
393 1 -8.3210966 -12.4816449 -16.6421932
394 1 -8.3210966 -10.40137075 -14.56191905
395 1 -6.24082245 -12.4816449 -14.56191905
396 1 -6.24082245 -10.40137075 -16.6421932
397 1 -8.3210966 -12.4816449 -12.4816449
398 1 -8.3210966 -10.40137075 -10.40137075
399 1 -6.24082245 -12.4816449 -10.40137075
400 1 -6.24082245 -10.40137075 -12.4816449
401 1 -8.3210966 -12.4816449 -8.3210966
402 1 -8.3210966 -10.40137075 -6.24082245
403 1 -6.24082245 -12.4816449 -6.24082245
404 1 -6.24082245 -10.40137075 -8.3210966
405 1 -8.3210966 -12.4816449 -4.1605483
406 1 -8.3210966 -10.40137075 -2.08027415
407 1 -6.24082245 -12.4816449 -2.08027415
408 1 -6.24082245 -10.40137075 -4.1605483
409 1 -8.3210966 -12.4816449 0.0
410 1 -8.3210966 -10.40137075 2.08027415
411 1 -6.24082245 -12.4816449 2.08027415
412 1 -6.24082245 -10.40137075 0.0
413 1 -6.24082245 -10.40137075 4.1605483
414 1 -8.3210966 -8.3210966 -20.8027415
415 1 -8.3210966 -6.24082245 -18.72246735
416 1 -6.24082245 -8.3210966 -18.72246735
417 1 -6.24082245 -6.24082245 -20.8027415
418 1 -8.3210966 -8.3210966 -16.6421932
419 1 -8.3210966 -6.24082245 -14.56191905
420 1 -6.24082245 -8.3210966 -14.56191905
421 1 -6.24082245 -6.24082245 -16.6421932
422 1 -8.3210966 -8.3210966 -12.4816449
423 1 -8.3210966 -6.24082245 -10.40137075
424 1 -6.24082245 -8.3210966 -10.40137075
425 1 -6.24082245 -6.24082245 -12.4816449
426 1 -8.3210966 -8.3210966 -8.3210966
427 1 -8.3210966 -6.24082245 -6.24082245
428 1 -6.24082245 -8.3210966 -6.24082245
429 1 -6.24082245 -6.24082245 -8.3210966
430 1 -8.3210966 -8.3210966 -4.1605483
431 1 -8.3210966 -6.24082245 -2.08027415
432 1 -6.24082245 -8.3210966 -2.08027415
433 1 -6.24082245 -6.24082245 -4.1605483
434 1 -8.3210966 -8.3210966 0.0
435 1 -8.3210966 -6.24082245 2.08027415
436 1 -6.24082245 -8.3210966 2.08027415
437 1 -6.24082245 -6.24082245 0.0
438 1 -8.3210966 -8.3210966 4.1605483
439 1 -8.3210966 -6.24082245 6.24082245
440 1 -6.24082245 -8.3210966 6.24082245
441 1 -6.24082245 -6.24082245 4.1605483
442 1 -6.24082245 -6.24082245 8.3210966
443 1 -6.24082245 -4.1605483 -18.72246735
444 1 -8.3210966 -4.1605483 -16.6421932
445 1 -8.3210966 -2.08027415 -14.56191905
446 1 -6.24082245 -4.1605483 -14.56191905
447 1 -6.24082245 -2.08027415 -16.6421932
448 1 -8.3210966 -4.1605483 -12.4816449
449 1 -8.3210966 -2.08027415 -10.40137075
450 1 -6.24082245 -4.1605483 -10.40137075
451 1 -6.24082245 -2.08027415 -12.4816449
452 1 -8.3210966 -4.1605483 -8.3210966
453 1 -8.3210966 -2.08027415 -6.24082245
454 1 -6.24082245 -4.1605483 -6.24082245
455 1 -6.24082245 -2.08027415 -8.3210966
456 1 -8.3210966 -4.1605483 -4.1605483
457 1 -8.3210966 -2.08027415 -2.08027415
458 1 -6.24082245 -4.1605483 -2.08027415
459 1 -6.24082245 -2.08027415 -4.1605483
460 1 -8.3210966 -4.1605483 0.0
461 1 -8.3210966 -2.08027415 2.08027415
462 1 -6.24082245 -4.1605483 2.08027415
463 1 -6.24082245 -2.08027415 0.0
464 1 -8.3210966 -4.1605483 4.1605483
465 1 -8.3210966 -2.08027415 6.24082245
466 1 -6.24082245 -4.1605483 6.24082245
467 1 -6.24082245 -2.08027415 4.1605483
468 1 -8.3210966 -4.1605483 8.3210966
469 1 -8.3210966 -2.08027415 10.40137075
470 1 -6.24082245 -4.1605483 10.40137075
471 1 -6.24082245 -2.08027415 8.3210966
472 1 -6.24082245 -2.08027415 12.4816449
473 1 -6.24082245 0.0 -14.56191905
474 1 -8.3210966 0.0 -12.4816449
475 1 -8.3210966 2.08027415 -10.40137075
476 1 -6.24082245 0.0 -10.40137075
477 1 -6.24082245 2.08027415 -12.4816449
478 1 -8.3210966 0.0 -8.3210966
479 1 -8.3210966 2.08027415 -6.24082245
480 1 -6.24082245 0.0 -6.24082245
481 1 -6.24082245 2.08027415 -8.3210966
482 1 -8.3210966 0.0 -4.1605483
483 1 -8.3210966 2.08027415 -2.08027415
484 1 -6.24082245 0.0 -2.08027415
485 1 -6.24082245 2.08027415 -4.1605483
486 1 -8.3210966 0.0 0.0
487 1 -8.3210966 2.08027415 2.08027415
488 1 -6.24082245 0.0 2.08027415
489 1 -6.24082245 2.08027415 0.0
490 1 -8.3210966 0.0 4.1605483
491 1 -8.3210966 2.08027415 6.24082245
492 1 -6.24082245 0.0 6.24082245
493 1 -6.24082245 2.08027415 4.1605483
494 1 -8.3210966 0.0 8.3210966
495 1 -8.3210966 2.08027415 10.40137075
496 1 -6.24082245 0.0 10.40137075
497 1 -6.24082245 2.08027415 8.3210966
498 1 -8.3210966 0.0 12.4816449
499 1 -8.3210966 2.08027415 14.56191905
500 1 -6.24082245 0.0 14.56191905
501 1 -6.24082245 2.08027415 12.4816449
502 1 -6.24082245 2.08027415 16.6421932
503 1 -6.24082245 4.1605483 -10.40137075
504 1 -8.3210966 4.1605483 -8.3210966
505 1 -8.3210966 6.24082245 -6.24082245
506 1 -6.24082245 4.1605483 -6.24082245
507 1 -6.24082245 6.24082245 -8.3210966
508 1 -8.3210966 4.1605483 -4.1605483
509 1 -8.3210966 6.24082245 -2.08027415
510 1 -6.24082245 4.1605483 -2.08027415
511 1 -6.24082245 6.24082245 -4.1605483
512 1 -8.3210966 4.1605483 0.0
513 1 -8.3210966 6.24082245 2.08027415
514 1 -6.24082245 4.1605483 2.08027415
515 1 -6.24082245 6.24082245 0.0
516 1 -8.3210966 4.1605483 4.1605483
517 1 -8.3210966 6.24082245 6.24082245
518 1 -6.24082245 4.1605483 6.24082245
519 1 -6.24082245 6.24082245 4.1605483
520 1 -8.3210966 4.1605483 8.3210966
521 1 -8.3210966 6.24082245 10.40137075
522 1 -6.24082245 4.1605483 10.40137075
523 1 -6.24082245 6.24082245 8.3210966
524 1 -8.3210966 4.1605483 12.4816449
525 1 -8.3210966 6.24082245 14.56191905
526 1 -6.24082245 4.1605483 14.56191905
527 1 -6.24082245 6.24082245 12.4816449
528 1 -8.3210966 4.1605483 16.6421932
529 1 -8.3210966 6.24082245 18.72246735
530 1 -6.24082245 4.1605483 18.72246735
531 1 -6.24082245 6.24082245 16.6421932
532 1 -6.24082245 6.24082245 20.8027415
533 1 -6.24082245 8.3210966 -6.24082245
534 1 -8.3210966 8.3210966 -4.1605483
535 1 -8.3210966 10.40137075 -2.08027415
536 1 -6.24082245 8.3210966 -2.08027415
537 1 -6.24082245 10.40137075 -4.1605483
538 1 -8.3210966 8.3210966 0.0
539 1 -8.3210966 10.40137075 2.08027415
540 1 -6.24082245 8.3210966 2.08027415
541 1 -6.24082245 10.40137075 0.0
542 1 -8.3210966 8.3210966 4.1605483
543 1 -8.3210966 10.40137075 6.24082245
544 1 -6.24082245 8.3210966 6.24082245
545 1 -6.24082245 10.40137075 4.1605483
546 1 -8.3210966 8.3210966 8.3210966
547 1 -8.3210966 10.40137075 10.40137075
548 1 -6.24082245 8.3210966 10.40137075
549 1 -6.24082245 10.40137075 8.3210966
550 1 -8.3210966 8.3210966 12.4816449
551 1 -8.3210966 10.40137075 14.56191905
552 1 -6.24082245 8.3210966 14.56191905
553 1 -6.24082245 10.40137075 12.4816449
554 1 -8.3210966 8.3210966 16.6421932
555 1 -8.3210966 10.40137075 18.72246735
556 1 -6.24082245 8.3210966 18.72246735
557 1 -6.24082245 10.40137075 16.6421932
558 1 -8.3210966 8.3210966 20.8027415
559 1 -6.24082245 12.4816449 -2.08027415
560 1 -8.3210966 12.4816449 0.0
561 1 -8.3210966 14.56191905 2.08027415
562 1 -6.24082245 12.4816449 2.08027415
563 1 -6.24082245 14.56191905 0.0
564 1 -8.3210966 12.4816449 4.1605483
565 1 -8.3210966 14.56191905 6.24082245
566 1 -6.24082245 12.4816449 6.24082245
567 1 -6.24082245 14.56191905 4.1605483
568 1 -8.3210966 12.4816449 8.3210966
569 1 -8.3210966 14.56191905 10.40137075
570 1 -6.24082245 12.4816449 10.40137075
571 1 -6.24082245 14.56191905 8.3210966
572 1 -8.3210966 12.4816449 12.4816449
573 1 -8.3210966 14.56191905 14.56191905
574 1 -6.24082245 12.4816449 14.56191905
575 1 -6.24082245 14.56191905 12.4816449
576 1 -8.3210966 12.4816449 16.6421932
577 1 -6.24082245 16.6421932 2.08027415
578 1 -8.3210966 16.6421932 4.1605483
579 1 -8.3210966 18.72246735 6.24082245
580 1 -6.24082245 16.6421932 6.24082245
581 1 -6.24082245 18.72246735 4.1605483
582 1 -8.3210966 16.6421932 8.3210966
583 1 -8.3210966 18.72246735 10.40137075
584 1 -6.24082245 16.6421932 10.40137075
585 1 -6.24082245 18.72246735 8.3210966
586 1 -8.3210966 16.6421932 12.4816449
587 1 -6.24082245 20.8027415 6.24082245
588 1 -8.3210966 20.8027415 8.3210966
589 1 -4.1605483 -18.72246735 -6.24082245
590 1 -4.1605483 -20.8027415 -4.1605483
591 1 -4.1605483 -18.72246735 -2.08027415
592 1 -2.08027415 -20.8027415 -2.08027415
593 1 -2.08027415 -18.72246735 -4.1605483
594 1 -2.08027415 -18.72246735 0.0
595 1 -4.1605483 -14.56191905 -10.40137075
596 1 -4.1605483 -16.6421932 -8.3210966
597 1 -4.1605483 -14.56191905 -6.24082245
598 1 -2.08027415 -16.6421932 -6.24082245
599 1 -2.08027415 -14.56191905 -8.3210966
600 1 -4.1605483 -16.6421932 -4.1605483
601 1 -4.1605483 -14.56191905 -2.08027415
602 1 -2.08027415 -16.6421932 -2.08027415
603 1 -2.08027415 -14.56191905 -4.1605483
604 1 -4.1605483 -16.6421932 0.0
605 1 -4.1605483 -14.56191905 2.08027415
606 1 -2.08027415 -16.6421932 2.08027415
607 1 -2.08027415 -14.56191905 0.0
608 1 -2.08027415 -14.56191905 4.1605483
609 1 -4.1605483 -10.40137075 -14.56191905
610 1 -4.1605483 -12.4816449 -12.4816449
611 1 -4.1605483 -10.40137075 -10.40137075
612 1 -2.08027415 -12.4816449 -10.40137075
613 1 -2.08027415 -10.40137075 -12.4816449
614 1 -4.1605483 -12.4816449 -8.3210966
615 1 -4.1605483 -10.40137075 -6.24082245
616 1 -2.08027415 -12.4816449 -6.24082245
617 1 -2.08027415 -10.40137075 -8.3210966
618 1 -4.1605483 -12.4816449 -4.1605483
619 1 -4.1605483 -10.40137075 -2.08027415
620 1 -2.08027415 -12.4816449 -2.08027415
621 1 -2.08027415 -10.40137075 -4.1605483
622 1 -4.1605483 -12.4816449 0.0
623 1 -4.1605483 -10.40137075 2.08027415
624 1 -2.08027415 -12.4816449 2.08027415
625 1 -2.08027415 -10.40137075 0.0
626 1 -4.1605483 -12.4816449 4.1605483
627 1 -4.1605483 -10.40137075 6.24082245
628 1 -2.08027415 -12.4816449 6.24082245
629 1 -2.08027415 -10.40137075 4.1605483
630 1 -2.08027415 -10.40137075 8.3210966
631 1 -4.1605483 -6.24082245 -18.72246735
632 1 -4.1605483 -8.3210966 -16.6421932
633 1 -4.1605483 -6.24082245 -14.56191905
634 1 -2.08027415 -8.3210966 -14.56191905
635 1 -2.08027415 -6.24082245 -16.6421932
636 1 -4.1605483 -8.3210966 -12.4816449
637 1 -4.1605483 -6.24082245 -10.40137075
638 1 -2.08027415 -8.3210966 -10.40137075
639 1 -2.08027415 -6.24082245 -12.4816449
640 1 -4.1605483 -8.3210966 -8.3210966
641 1 -4.1605483 -6.24082245 -6.24082245
642 1 -2.08027415 -8.3210966 -6.24082245
643 1 -2.08027415 -6.24082245 -8.3210966
644 1 -4.1605483 -8.3210966 -4.1605483
645 1 -4.1605483 -6.24082245 -2.08027415
646 1 -2.08027415 -8.3210966 -2.08027415
647 1 -2.08027415 -6.24082245 -4.1605483
648 1 -4.1605483 -8.3210966 0.0
649 1 -4.1605483 -6.24082245 2.08027415
650 1 -2.08027415 -8.3210966 2.08027415
651 1 -2.08027415 -6.24082245 0.0
652 1 -4.1605483 -8.3210966 4.1605483
653 1 -4.1605483 -6.24082245 6.24082245
654 1 -2.08027415 -8.3210966 6.24082245
655 1 -2.08027415 -6.24082245 4.1605483
656 1 -4.1605483 -8.3210966 8.3210966
657 1 -4.1605483 -6.24082245 10.40137075
658 1 -2.08027415 -8.3210966 10.40137075
659 1 -2.08027415 -6.24082245 8.3210966
660 1 -2.08027415 -6.24082245 12.4816449
661 1 -4.1605483 -4.1605483 -20.8027415
662 1 -4.1605483 -2.08027415 -18.72246735
663 1 -2.08027415 -4.1605483 -18.72246735
664 1 -2.08027415 -2.08027415 -20.8027415
665 1 -4.1605483 -4.1605483 -16.6421932
666 1 -4.1605483 -2.08027415 -14.56191905
667 1 -2.08027415 -4.1605483 -14.56191905
668 1 -2.08027415 -2.08027415 -16.6421932
669 1 -4.1605483 -4.1605483 -12.4816449
670 1 -4.1605483 -2.08027415 -10.40137075
671 1 -2.08027415 -4.1605483 -10.40137075
672 1 -2.08027415 -2.08027415 -12.4816449
673 1 -4.1605483 -4.1605483 -8.3210966
674 1 -4.1605483 -2.08027415 -6.24082245
675 1 -2.08027415 -4.1605483 -6.24082245
676 1 -2.08027415 -2.08027415 -8.3210966
677 1 -4.1605483 -4.1605483 -4.1605483
678 1 -4.1605483 -2.08027415 -2.08027415
679 1 -2.08027415 -4.1605483 -2.08027415
680 1 -2.08027415 -2.08027415 -4.1605483
681 1 -4.1605483 -4.1605483 0.0
682 1 -4.1605483 -2.08027415 2.08027415
683 1 -2.08027415 -4.1605483 2.08027415
684 1 -2.08027415 -2.08027415 0.0
685 1 -4.1605483 -4.1605483 4.1605483
686 1 -4.1605483 -2.08027415 6.24082245
687 1 -2.08027415 -4.1605483 6.24082245
688 1 -2.08027415 -2.08027415 4.1605483
689 1 -4.1605483 -4.1605483 8.3210966
690 1 -4.1605483 -2.08027415 10.40137075
691 1 -2.08027415 -4.1605483 10.40137075
692 1 -2.08027415 -2.08027415 8.3210966
693 1 -4.1605483 -4.1605483 12.4816449
694 1 -4.1605483 -2.08027415 14.56191905
695 1 -2.08027415 -4.1605483 14.56191905
696 1 -2.08027415 -2.08027415 12.4816449
697 1 -2.08027415 -2.08027415 16.6421932
698 1 -2.08027415 0.0 -18.72246735
699 1 -4.1605483 0.0 -16.6421932
700 1 -4.1605483 2.08027415 -14.56191905
701 1 -2.08027415 0.0 -14.56191905
702 1 -2.08027415 2.08027415 -16.6421932
703 1 -4.1605483 0.0 -12.4816449
704 1 -4.1605483 2.08027415 -10.40137075
705 1 -2.08027415 0.0 -10.40137075
706 1 -2.08027415 2.08027415 -12.4816449
707 1 -4.1605483 0.0 -8.3210966
708 1 -4.1605483 2.08027415 -6.24082245
709 1 -2.08027415 0.0 -6.24082245
710 1 -2.08027415 2.08027415 -8.3210966
711 1 -4.1605483 0.0 -4.1605483
712 1 -4.1605483 2.08027415 -2.08027415
713 1 -2.08027415 0.0 -2.08027415
714 1 -2.08027415 2.08027415 -4.1605483
715 1 -4.1605483 0.0 0.0
716 1 -4.1605483 2.08027415 2.08027415
717 1 -2.08027415 0.0 2.08027415
718 1 -2.08027415 2.08027415 0.0
719 1 -4.1605483 0.0 4.1605483
720 1 -4.1605483 2.08027415 6.24082245
721 1 -2.08027415 0.0 6.24082245
722 1 -2.08027415 2.08027415 4.1605483
723 1 -4.1605483 0.0 8.3210966
724 1 -4.1605483 2.08027415 10.40137075
725 1 -2.08027415 0.0 10.40137075
726 1 -2.08027415 2.08027415 8.3210966
727 1 -4.1605483 0.0 12.4816449
728 1 -4.1605483 2.08027415 14.56191905
729 1 -2.08027415 0.0 14.56191905
730 1 -2.08027415 2.08027415 12.4816449
731 1 -4.1605483 0.0 16.6421932
732 1 -4.1605483 2.08027415 18.72246735
733 1 -2.08027415 0.0 18.72246735
734 1 -2.08027415 2.08027415 16.6421932
735 1 -2.08027415 2.08027415 20.8027415
736 1 -2.08027415 4.1605483 -14.56191905
737 1 -4.1605483 4.1605483 -12.4816449
738 1 -4.1605483 6.24082245 -10.40137075
739 1 -2.08027415 4.1605483 -10.40137075
740 1 -2.08027415 6.24082245 -12.4816449
741 1 -4.1605483 4.1605483 -8.3210966
742 1 -4.1605483 6.24082245 -6.24082245
743 1 -2.08027415 4.1605483 -6.24082245
744 1 -2.08027415 6.24082245 -8.3210966
745 1 -4.1605483 4.1605483 -4.1605483
746 1 -4.1605483 6.24082245 -2.08027415
747 1 -2.08027415 4.1605483 -2.08027415