# Cluster_Combination Program by NingWang
 1808 atoms
 1 atom types
 -100 100 xlo xhi
 -100 100 ylo yhi
 -100 100 zlo zhi

 Atoms  # atomic

1 1 -27.04356395 -10.40137075 0.0
2 1 -27.04356395 -8.3210966 -2.08027415
3 1 -27.04356395 -6.24082245 -4.1605483
4 1 -27.04356395 -8.3210966 2.08027415
5 1 -27.04356395 -6.24082245 0.0
6 1 -27.04356395 -6.24082245 4.1605483
7 1 -27.04356395 -4.1605483 -2.08027415
8 1 -27.04356395 -2.08027415 -4.1605483
9 1 -27.04356395 -4.1605483 2.08027415
10 1 -27.04356395 -2.08027415 0.0
11 1 -27.04356395 -2.08027415 4.1605483
12 1 -27.04356395 0.0 -2.08027415
13 1 -27.04356395 2.08027415 -4.1605483
14 1 -27.04356395 0.0 2.08027415
15 1 -27.04356395 2.08027415 0.0
16 1 -27.04356395 2.08027415 4.1605483
17 1 -27.04356395 4.1605483 -2.08027415
18 1 -27.04356395 6.24082245 -4.1605483
19 1 -27.04356395 4.1605483 2.08027415
20 1 -27.04356395 6.24082245 0.0
21 1 -27.04356395 6.24082245 4.1605483
22 1 -27.04356395 8.3210966 -2.08027415
23 1 -27.04356395 8.3210966 2.08027415
24 1 -27.04356395 10.40137075 0.0
25 1 -22.88301565 -16.6421932 -2.08027415
26 1 -22.88301565 -14.56191905 -4.1605483
27 1 -22.88301565 -16.6421932 2.08027415
28 1 -22.88301565 -14.56191905 0.0
29 1 -22.88301565 -14.56191905 4.1605483
30 1 -22.88301565 -12.4816449 -6.24082245
31 1 -24.9632898 -12.4816449 -4.1605483
32 1 -24.9632898 -10.40137075 -2.08027415
33 1 -22.88301565 -12.4816449 -2.08027415
34 1 -22.88301565 -10.40137075 -4.1605483
35 1 -24.9632898 -12.4816449 0.0
36 1 -24.9632898 -10.40137075 2.08027415
37 1 -22.88301565 -12.4816449 2.08027415
38 1 -22.88301565 -10.40137075 0.0
39 1 -24.9632898 -12.4816449 4.1605483
40 1 -22.88301565 -12.4816449 6.24082245
41 1 -22.88301565 -10.40137075 4.1605483
42 1 -24.9632898 -6.24082245 -6.24082245
43 1 -22.88301565 -8.3210966 -6.24082245
44 1 -24.9632898 -8.3210966 -4.1605483
45 1 -24.9632898 -6.24082245 -2.08027415
46 1 -22.88301565 -8.3210966 -2.08027415
47 1 -22.88301565 -6.24082245 -4.1605483
48 1 -24.9632898 -8.3210966 0.0
49 1 -24.9632898 -6.24082245 2.08027415
50 1 -22.88301565 -8.3210966 2.08027415
51 1 -22.88301565 -6.24082245 0.0
52 1 -24.9632898 -8.3210966 4.1605483
53 1 -24.9632898 -6.24082245 6.24082245
54 1 -22.88301565 -8.3210966 6.24082245
55 1 -22.88301565 -6.24082245 4.1605483
56 1 -24.9632898 -2.08027415 -6.24082245
57 1 -22.88301565 -4.1605483 -6.24082245
58 1 -22.88301565 -2.08027415 -8.3210966
59 1 -24.9632898 -4.1605483 -4.1605483
60 1 -24.9632898 -2.08027415 -2.08027415
61 1 -22.88301565 -4.1605483 -2.08027415
62 1 -22.88301565 -2.08027415 -4.1605483
63 1 -24.9632898 -4.1605483 0.0
64 1 -24.9632898 -2.08027415 2.08027415
65 1 -22.88301565 -4.1605483 2.08027415
66 1 -22.88301565 -2.08027415 0.0
67 1 -24.9632898 -4.1605483 4.1605483
68 1 -24.9632898 -2.08027415 6.24082245
69 1 -22.88301565 -4.1605483 6.24082245
70 1 -22.88301565 -2.08027415 4.1605483
71 1 -22.88301565 -2.08027415 8.3210966
72 1 -24.9632898 2.08027415 -6.24082245
73 1 -22.88301565 0.0 -6.24082245
74 1 -22.88301565 2.08027415 -8.3210966
75 1 -24.9632898 0.0 -4.1605483
76 1 -24.9632898 2.08027415 -2.08027415
77 1 -22.88301565 0.0 -2.08027415
78 1 -22.88301565 2.08027415 -4.1605483
79 1 -24.9632898 0.0 0.0
80 1 -24.9632898 2.08027415 2.08027415
81 1 -22.88301565 0.0 2.08027415
82 1 -22.88301565 2.08027415 0.0
83 1 -24.9632898 0.0 4.1605483
84 1 -24.9632898 2.08027415 6.24082245
85 1 -22.88301565 0.0 6.24082245
86 1 -22.88301565 2.08027415 4.1605483
87 1 -22.88301565 2.08027415 8.3210966
88 1 -24.9632898 6.24082245 -6.24082245
89 1 -22.88301565 4.1605483 -6.24082245
90 1 -24.9632898 4.1605483 -4.1605483
91 1 -24.9632898 6.24082245 -2.08027415
92 1 -22.88301565 4.1605483 -2.08027415
93 1 -22.88301565 6.24082245 -4.1605483
94 1 -24.9632898 4.1605483 0.0
95 1 -24.9632898 6.24082245 2.08027415
96 1 -22.88301565 4.1605483 2.08027415
97 1 -22.88301565 6.24082245 0.0
98 1 -24.9632898 4.1605483 4.1605483
99 1 -24.9632898 6.24082245 6.24082245
100 1 -22.88301565 4.1605483 6.24082245
101 1 -22.88301565 6.24082245 4.1605483
102 1 -22.88301565 8.3210966 -6.24082245
103 1 -24.9632898 8.3210966 -4.1605483
104 1 -24.9632898 10.40137075 -2.08027415
105 1 -22.88301565 8.3210966 -2.08027415
106 1 -22.88301565 10.40137075 -4.1605483
107 1 -24.9632898 8.3210966 0.0
108 1 -24.9632898 10.40137075 2.08027415
109 1 -22.88301565 8.3210966 2.08027415
110 1 -22.88301565 10.40137075 0.0
111 1 -24.9632898 8.3210966 4.1605483
112 1 -22.88301565 8.3210966 6.24082245
113 1 -22.88301565 10.40137075 4.1605483
114 1 -22.88301565 12.4816449 -6.24082245
115 1 -24.9632898 12.4816449 -4.1605483
116 1 -22.88301565 12.4816449 -2.08027415
117 1 -22.88301565 14.56191905 -4.1605483
118 1 -24.9632898 12.4816449 0.0
119 1 -22.88301565 12.4816449 2.08027415
120 1 -22.88301565 14.56191905 0.0
121 1 -24.9632898 12.4816449 4.1605483
122 1 -22.88301565 12.4816449 6.24082245
123 1 -22.88301565 14.56191905 4.1605483
124 1 -22.88301565 16.6421932 -2.08027415
125 1 -22.88301565 16.6421932 2.08027415
126 1 -20.8027415 -18.72246735 -2.08027415
127 1 -18.72246735 -20.8027415 -2.08027415
128 1 -18.72246735 -18.72246735 -4.1605483
129 1 -20.8027415 -18.72246735 2.08027415
130 1 -18.72246735 -20.8027415 2.08027415
131 1 -18.72246735 -18.72246735 0.0
132 1 -18.72246735 -18.72246735 4.1605483
133 1 -20.8027415 -14.56191905 -6.24082245
134 1 -18.72246735 -16.6421932 -6.24082245
135 1 -20.8027415 -16.6421932 -4.1605483
136 1 -20.8027415 -14.56191905 -2.08027415
137 1 -18.72246735 -16.6421932 -2.08027415
138 1 -18.72246735 -14.56191905 -4.1605483
139 1 -20.8027415 -16.6421932 0.0
140 1 -20.8027415 -14.56191905 2.08027415
141 1 -18.72246735 -16.6421932 2.08027415
142 1 -18.72246735 -14.56191905 0.0
143 1 -20.8027415 -16.6421932 4.1605483
144 1 -20.8027415 -14.56191905 6.24082245
145 1 -18.72246735 -16.6421932 6.24082245
146 1 -18.72246735 -14.56191905 4.1605483
147 1 -20.8027415 -10.40137075 -6.24082245
148 1 -18.72246735 -12.4816449 -6.24082245
149 1 -18.72246735 -10.40137075 -8.3210966
150 1 -20.8027415 -12.4816449 -4.1605483
151 1 -20.8027415 -10.40137075 -2.08027415
152 1 -18.72246735 -12.4816449 -2.08027415
153 1 -18.72246735 -10.40137075 -4.1605483
154 1 -20.8027415 -12.4816449 0.0
155 1 -20.8027415 -10.40137075 2.08027415
156 1 -18.72246735 -12.4816449 2.08027415
157 1 -18.72246735 -10.40137075 0.0
158 1 -20.8027415 -12.4816449 4.1605483
159 1 -20.8027415 -10.40137075 6.24082245
160 1 -18.72246735 -12.4816449 6.24082245
161 1 -18.72246735 -10.40137075 4.1605483
162 1 -18.72246735 -10.40137075 8.3210966
163 1 -20.8027415 -8.3210966 -8.3210966
164 1 -20.8027415 -6.24082245 -6.24082245
165 1 -18.72246735 -8.3210966 -6.24082245
166 1 -18.72246735 -6.24082245 -8.3210966
167 1 -20.8027415 -8.3210966 -4.1605483
168 1 -20.8027415 -6.24082245 -2.08027415
169 1 -18.72246735 -8.3210966 -2.08027415
170 1 -18.72246735 -6.24082245 -4.1605483
171 1 -20.8027415 -8.3210966 0.0
172 1 -20.8027415 -6.24082245 2.08027415
173 1 -18.72246735 -8.3210966 2.08027415
174 1 -18.72246735 -6.24082245 0.0
175 1 -20.8027415 -8.3210966 4.1605483
176 1 -20.8027415 -6.24082245 6.24082245
177 1 -18.72246735 -8.3210966 6.24082245
178 1 -18.72246735 -6.24082245 4.1605483
179 1 -20.8027415 -8.3210966 8.3210966
180 1 -18.72246735 -6.24082245 8.3210966
181 1 -20.8027415 -4.1605483 -8.3210966
182 1 -20.8027415 -2.08027415 -6.24082245
183 1 -18.72246735 -4.1605483 -6.24082245
184 1 -18.72246735 -2.08027415 -8.3210966
185 1 -20.8027415 -4.1605483 -4.1605483
186 1 -20.8027415 -2.08027415 -2.08027415
187 1 -18.72246735 -4.1605483 -2.08027415
188 1 -18.72246735 -2.08027415 -4.1605483
189 1 -20.8027415 -4.1605483 0.0
190 1 -20.8027415 -2.08027415 2.08027415
191 1 -18.72246735 -4.1605483 2.08027415
192 1 -18.72246735 -2.08027415 0.0
193 1 -20.8027415 -4.1605483 4.1605483
194 1 -20.8027415 -2.08027415 6.24082245
195 1 -18.72246735 -4.1605483 6.24082245
196 1 -18.72246735 -2.08027415 4.1605483
197 1 -20.8027415 -4.1605483 8.3210966
198 1 -18.72246735 -2.08027415 8.3210966
199 1 -20.8027415 0.0 -8.3210966
200 1 -20.8027415 2.08027415 -6.24082245
201 1 -18.72246735 0.0 -6.24082245
202 1 -18.72246735 2.08027415 -8.3210966
203 1 -20.8027415 0.0 -4.1605483
204 1 -20.8027415 2.08027415 -2.08027415
205 1 -18.72246735 0.0 -2.08027415
206 1 -18.72246735 2.08027415 -4.1605483
207 1 -20.8027415 0.0 0.0
208 1 -20.8027415 2.08027415 2.08027415
209 1 -18.72246735 0.0 2.08027415
210 1 -18.72246735 2.08027415 0.0
211 1 -20.8027415 0.0 4.1605483
212 1 -20.8027415 2.08027415 6.24082245
213 1 -18.72246735 0.0 6.24082245
214 1 -18.72246735 2.08027415 4.1605483
215 1 -20.8027415 0.0 8.3210966
216 1 -18.72246735 2.08027415 8.3210966
217 1 -20.8027415 4.1605483 -8.3210966
218 1 -20.8027415 6.24082245 -6.24082245
219 1 -18.72246735 4.1605483 -6.24082245
220 1 -18.72246735 6.24082245 -8.3210966
221 1 -20.8027415 4.1605483 -4.1605483
222 1 -20.8027415 6.24082245 -2.08027415
223 1 -18.72246735 4.1605483 -2.08027415
224 1 -18.72246735 6.24082245 -4.1605483
225 1 -20.8027415 4.1605483 0.0
226 1 -20.8027415 6.24082245 2.08027415
227 1 -18.72246735 4.1605483 2.08027415
228 1 -18.72246735 6.24082245 0.0
229 1 -20.8027415 4.1605483 4.1605483
230 1 -20.8027415 6.24082245 6.24082245
231 1 -18.72246735 4.1605483 6.24082245
232 1 -18.72246735 6.24082245 4.1605483
233 1 -20.8027415 4.1605483 8.3210966
234 1 -18.72246735 6.24082245 8.3210966
235 1 -20.8027415 8.3210966 -8.3210966
236 1 -20.8027415 10.40137075 -6.24082245
237 1 -18.72246735 8.3210966 -6.24082245
238 1 -18.72246735 10.40137075 -8.3210966
239 1 -20.8027415 8.3210966 -4.1605483
240 1 -20.8027415 10.40137075 -2.08027415
241 1 -18.72246735 8.3210966 -2.08027415
242 1 -18.72246735 10.40137075 -4.1605483
243 1 -20.8027415 8.3210966 0.0
244 1 -20.8027415 10.40137075 2.08027415
245 1 -18.72246735 8.3210966 2.08027415
246 1 -18.72246735 10.40137075 0.0
247 1 -20.8027415 8.3210966 4.1605483
248 1 -20.8027415 10.40137075 6.24082245
249 1 -18.72246735 8.3210966 6.24082245
250 1 -18.72246735 10.40137075 4.1605483
251 1 -20.8027415 8.3210966 8.3210966
252 1 -18.72246735 10.40137075 8.3210966
253 1 -20.8027415 14.56191905 -6.24082245
254 1 -18.72246735 12.4816449 -6.24082245
255 1 -20.8027415 12.4816449 -4.1605483
256 1 -20.8027415 14.56191905 -2.08027415
257 1 -18.72246735 12.4816449 -2.08027415
258 1 -18.72246735 14.56191905 -4.1605483
259 1 -20.8027415 12.4816449 0.0
260 1 -20.8027415 14.56191905 2.08027415
261 1 -18.72246735 12.4816449 2.08027415
262 1 -18.72246735 14.56191905 0.0
263 1 -20.8027415 12.4816449 4.1605483
264 1 -20.8027415 14.56191905 6.24082245
265 1 -18.72246735 12.4816449 6.24082245
266 1 -18.72246735 14.56191905 4.1605483
267 1 -18.72246735 16.6421932 -6.24082245
268 1 -20.8027415 16.6421932 -4.1605483
269 1 -20.8027415 18.72246735 -2.08027415
270 1 -18.72246735 16.6421932 -2.08027415
271 1 -18.72246735 18.72246735 -4.1605483
272 1 -20.8027415 16.6421932 0.0
273 1 -20.8027415 18.72246735 2.08027415
274 1 -18.72246735 16.6421932 2.08027415
275 1 -18.72246735 18.72246735 0.0
276 1 -20.8027415 16.6421932 4.1605483
277 1 -18.72246735 16.6421932 6.24082245
278 1 -18.72246735 18.72246735 4.1605483
279 1 -18.72246735 20.8027415 -2.08027415
280 1 -18.72246735 20.8027415 2.08027415
281 1 -16.6421932 -22.88301565 -2.08027415
282 1 -14.56191905 -22.88301565 -4.1605483
283 1 -16.6421932 -22.88301565 2.08027415
284 1 -14.56191905 -22.88301565 0.0
285 1 -14.56191905 -22.88301565 4.1605483
286 1 -16.6421932 -18.72246735 -6.24082245
287 1 -14.56191905 -20.8027415 -6.24082245
288 1 -16.6421932 -20.8027415 -4.1605483
289 1 -16.6421932 -18.72246735 -2.08027415
290 1 -14.56191905 -20.8027415 -2.08027415
291 1 -14.56191905 -18.72246735 -4.1605483
292 1 -16.6421932 -20.8027415 0.0
293 1 -16.6421932 -18.72246735 2.08027415
294 1 -14.56191905 -20.8027415 2.08027415
295 1 -14.56191905 -18.72246735 0.0
296 1 -16.6421932 -20.8027415 4.1605483
297 1 -16.6421932 -18.72246735 6.24082245
298 1 -14.56191905 -20.8027415 6.24082245
299 1 -14.56191905 -18.72246735 4.1605483
300 1 -16.6421932 -14.56191905 -6.24082245
301 1 -14.56191905 -16.6421932 -6.24082245
302 1 -14.56191905 -14.56191905 -8.3210966
303 1 -16.6421932 -16.6421932 -4.1605483
304 1 -16.6421932 -14.56191905 -2.08027415
305 1 -14.56191905 -16.6421932 -2.08027415
306 1 -14.56191905 -14.56191905 -4.1605483
307 1 -16.6421932 -16.6421932 0.0
308 1 -16.6421932 -14.56191905 2.08027415
309 1 -14.56191905 -16.6421932 2.08027415
310 1 -14.56191905 -14.56191905 0.0
311 1 -16.6421932 -16.6421932 4.1605483
312 1 -16.6421932 -14.56191905 6.24082245
313 1 -14.56191905 -16.6421932 6.24082245
314 1 -14.56191905 -14.56191905 4.1605483
315 1 -14.56191905 -14.56191905 8.3210966
316 1 -16.6421932 -12.4816449 -8.3210966
317 1 -16.6421932 -10.40137075 -6.24082245
318 1 -14.56191905 -12.4816449 -6.24082245
319 1 -14.56191905 -10.40137075 -8.3210966
320 1 -16.6421932 -12.4816449 -4.1605483
321 1 -16.6421932 -10.40137075 -2.08027415
322 1 -14.56191905 -12.4816449 -2.08027415
323 1 -14.56191905 -10.40137075 -4.1605483
324 1 -16.6421932 -12.4816449 0.0
325 1 -16.6421932 -10.40137075 2.08027415
326 1 -14.56191905 -12.4816449 2.08027415
327 1 -14.56191905 -10.40137075 0.0
328 1 -16.6421932 -12.4816449 4.1605483
329 1 -16.6421932 -10.40137075 6.24082245
330 1 -14.56191905 -12.4816449 6.24082245
331 1 -14.56191905 -10.40137075 4.1605483
332 1 -16.6421932 -12.4816449 8.3210966
333 1 -14.56191905 -10.40137075 8.3210966
334 1 -16.6421932 -8.3210966 -8.3210966
335 1 -16.6421932 -6.24082245 -6.24082245
336 1 -14.56191905 -8.3210966 -6.24082245
337 1 -16.6421932 -8.3210966 -4.1605483
338 1 -16.6421932 -6.24082245 -2.08027415
339 1 -14.56191905 -8.3210966 -2.08027415
340 1 -14.56191905 -6.24082245 -4.1605483
341 1 -16.6421932 -8.3210966 0.0
342 1 -16.6421932 -6.24082245 2.08027415
343 1 -14.56191905 -8.3210966 2.08027415
344 1 -14.56191905 -6.24082245 0.0
345 1 -16.6421932 -8.3210966 4.1605483
346 1 -16.6421932 -6.24082245 6.24082245
347 1 -14.56191905 -8.3210966 6.24082245
348 1 -14.56191905 -6.24082245 4.1605483
349 1 -16.6421932 -8.3210966 8.3210966
350 1 -16.6421932 -4.1605483 -8.3210966
351 1 -16.6421932 -2.08027415 -6.24082245
352 1 -14.56191905 -4.1605483 -6.24082245
353 1 -16.6421932 -4.1605483 -4.1605483
354 1 -16.6421932 -2.08027415 -2.08027415
355 1 -14.56191905 -4.1605483 -2.08027415
356 1 -14.56191905 -2.08027415 -4.1605483
357 1 -16.6421932 -4.1605483 0.0
358 1 -16.6421932 -2.08027415 2.08027415
359 1 -14.56191905 -4.1605483 2.08027415
360 1 -14.56191905 -2.08027415 0.0
361 1 -16.6421932 -4.1605483 4.1605483
362 1 -16.6421932 -2.08027415 6.24082245
363 1 -14.56191905 -4.1605483 6.24082245
364 1 -14.56191905 -2.08027415 4.1605483
365 1 -16.6421932 -4.1605483 8.3210966
366 1 -16.6421932 0.0 -8.3210966
367 1 -16.6421932 2.08027415 -6.24082245
368 1 -14.56191905 0.0 -6.24082245
369 1 -16.6421932 0.0 -4.1605483
370 1 -16.6421932 2.08027415 -2.08027415
371 1 -14.56191905 0.0 -2.08027415
372 1 -14.56191905 2.08027415 -4.1605483
373 1 -16.6421932 0.0 0.0
374 1 -16.6421932 2.08027415 2.08027415
375 1 -14.56191905 0.0 2.08027415
376 1 -14.56191905 2.08027415 0.0
377 1 -16.6421932 0.0 4.1605483
378 1 -16.6421932 2.08027415 6.24082245
379 1 -14.56191905 0.0 6.24082245
380 1 -14.56191905 2.08027415 4.1605483
381 1 -16.6421932 0.0 8.3210966
382 1 -16.6421932 4.1605483 -8.3210966
383 1 -16.6421932 6.24082245 -6.24082245
384 1 -14.56191905 4.1605483 -6.24082245
385 1 -16.6421932 4.1605483 -4.1605483
386 1 -16.6421932 6.24082245 -2.08027415
387 1 -14.56191905 4.1605483 -2.08027415
388 1 -14.56191905 6.24082245 -4.1605483
389 1 -16.6421932 4.1605483 0.0
390 1 -16.6421932 6.24082245 2.08027415
391 1 -14.56191905 4.1605483 2.08027415
392 1 -14.56191905 6.24082245 0.0
393 1 -16.6421932 4.1605483 4.1605483
394 1 -16.6421932 6.24082245 6.24082245
395 1 -14.56191905 4.1605483 6.24082245
396 1 -14.56191905 6.24082245 4.1605483
397 1 -16.6421932 4.1605483 8.3210966
398 1 -16.6421932 8.3210966 -8.3210966
399 1 -16.6421932 10.40137075 -6.24082245
400 1 -14.56191905 8.3210966 -6.24082245
401 1 -14.56191905 10.40137075 -8.3210966
402 1 -16.6421932 8.3210966 -4.1605483
403 1 -16.6421932 10.40137075 -2.08027415
404 1 -14.56191905 8.3210966 -2.08027415
405 1 -14.56191905 10.40137075 -4.1605483
406 1 -16.6421932 8.3210966 0.0
407 1 -16.6421932 10.40137075 2.08027415
408 1 -14.56191905 8.3210966 2.08027415
409 1 -14.56191905 10.40137075 0.0
410 1 -16.6421932 8.3210966 4.1605483
411 1 -16.6421932 10.40137075 6.24082245
412 1 -14.56191905 8.3210966 6.24082245
413 1 -14.56191905 10.40137075 4.1605483
414 1 -16.6421932 8.3210966 8.3210966
415 1 -14.56191905 10.40137075 8.3210966
416 1 -16.6421932 12.4816449 -8.3210966
417 1 -16.6421932 14.56191905 -6.24082245
418 1 -14.56191905 12.4816449 -6.24082245
419 1 -14.56191905 14.56191905 -8.3210966
420 1 -16.6421932 12.4816449 -4.1605483
421 1 -16.6421932 14.56191905 -2.08027415
422 1 -14.56191905 12.4816449 -2.08027415
423 1 -14.56191905 14.56191905 -4.1605483
424 1 -16.6421932 12.4816449 0.0
425 1 -16.6421932 14.56191905 2.08027415
426 1 -14.56191905 12.4816449 2.08027415
427 1 -14.56191905 14.56191905 0.0
428 1 -16.6421932 12.4816449 4.1605483
429 1 -16.6421932 14.56191905 6.24082245
430 1 -14.56191905 12.4816449 6.24082245
431 1 -14.56191905 14.56191905 4.1605483
432 1 -16.6421932 12.4816449 8.3210966
433 1 -14.56191905 14.56191905 8.3210966
434 1 -16.6421932 18.72246735 -6.24082245
435 1 -14.56191905 16.6421932 -6.24082245
436 1 -16.6421932 16.6421932 -4.1605483
437 1 -16.6421932 18.72246735 -2.08027415
438 1 -14.56191905 16.6421932 -2.08027415
439 1 -14.56191905 18.72246735 -4.1605483
440 1 -16.6421932 16.6421932 0.0
441 1 -16.6421932 18.72246735 2.08027415
442 1 -14.56191905 16.6421932 2.08027415
443 1 -14.56191905 18.72246735 0.0
444 1 -16.6421932 16.6421932 4.1605483
445 1 -16.6421932 18.72246735 6.24082245
446 1 -14.56191905 16.6421932 6.24082245
447 1 -14.56191905 18.72246735 4.1605483
448 1 -14.56191905 20.8027415 -6.24082245
449 1 -16.6421932 20.8027415 -4.1605483
450 1 -16.6421932 22.88301565 -2.08027415
451 1 -14.56191905 20.8027415 -2.08027415
452 1 -14.56191905 22.88301565 -4.1605483
453 1 -16.6421932 20.8027415 0.0
454 1 -16.6421932 22.88301565 2.08027415
455 1 -14.56191905 20.8027415 2.08027415
456 1 -14.56191905 22.88301565 0.0
457 1 -16.6421932 20.8027415 4.1605483
458 1 -14.56191905 20.8027415 6.24082245
459 1 -14.56191905 22.88301565 4.1605483
460 1 -10.40137075 -27.04356395 0.0
461 1 -12.4816449 -22.88301565 -6.24082245
462 1 -12.4816449 -24.9632898 -4.1605483
463 1 -12.4816449 -22.88301565 -2.08027415
464 1 -10.40137075 -24.9632898 -2.08027415
465 1 -10.40137075 -22.88301565 -4.1605483
466 1 -12.4816449 -24.9632898 0.0
467 1 -12.4816449 -22.88301565 2.08027415
468 1 -10.40137075 -24.9632898 2.08027415
469 1 -10.40137075 -22.88301565 0.0
470 1 -12.4816449 -24.9632898 4.1605483
471 1 -12.4816449 -22.88301565 6.24082245
472 1 -10.40137075 -22.88301565 4.1605483
473 1 -12.4816449 -18.72246735 -6.24082245
474 1 -10.40137075 -20.8027415 -6.24082245
475 1 -10.40137075 -18.72246735 -8.3210966
476 1 -12.4816449 -20.8027415 -4.1605483
477 1 -12.4816449 -18.72246735 -2.08027415
478 1 -10.40137075 -20.8027415 -2.08027415
479 1 -10.40137075 -18.72246735 -4.1605483
480 1 -12.4816449 -20.8027415 0.0
481 1 -12.4816449 -18.72246735 2.08027415
482 1 -10.40137075 -20.8027415 2.08027415
483 1 -10.40137075 -18.72246735 0.0
484 1 -12.4816449 -20.8027415 4.1605483
485 1 -12.4816449 -18.72246735 6.24082245
486 1 -10.40137075 -20.8027415 6.24082245
487 1 -10.40137075 -18.72246735 4.1605483
488 1 -10.40137075 -18.72246735 8.3210966
489 1 -12.4816449 -16.6421932 -8.3210966
490 1 -12.4816449 -14.56191905 -6.24082245
491 1 -10.40137075 -16.6421932 -6.24082245
492 1 -10.40137075 -14.56191905 -8.3210966
493 1 -12.4816449 -16.6421932 -4.1605483
494 1 -12.4816449 -14.56191905 -2.08027415
495 1 -10.40137075 -16.6421932 -2.08027415
496 1 -10.40137075 -14.56191905 -4.1605483
497 1 -12.4816449 -16.6421932 0.0
498 1 -12.4816449 -14.56191905 2.08027415
499 1 -10.40137075 -16.6421932 2.08027415
500 1 -10.40137075 -14.56191905 0.0
501 1 -12.4816449 -16.6421932 4.1605483
502 1 -12.4816449 -14.56191905 6.24082245
503 1 -10.40137075 -16.6421932 6.24082245
504 1 -10.40137075 -14.56191905 4.1605483
505 1 -12.4816449 -16.6421932 8.3210966
506 1 -10.40137075 -14.56191905 8.3210966
507 1 -12.4816449 -12.4816449 -8.3210966
508 1 -12.4816449 -10.40137075 -6.24082245
509 1 -10.40137075 -12.4816449 -6.24082245
510 1 -12.4816449 -12.4816449 -4.1605483
511 1 -12.4816449 -10.40137075 -2.08027415
512 1 -10.40137075 -12.4816449 -2.08027415
513 1 -10.40137075 -10.40137075 -4.1605483
514 1 -12.4816449 -12.4816449 0.0
515 1 -12.4816449 -10.40137075 2.08027415
516 1 -10.40137075 -12.4816449 2.08027415
517 1 -10.40137075 -10.40137075 0.0
518 1 -12.4816449 -12.4816449 4.1605483
519 1 -12.4816449 -10.40137075 6.24082245
520 1 -10.40137075 -12.4816449 6.24082245
521 1 -10.40137075 -10.40137075 4.1605483
522 1 -12.4816449 -12.4816449 8.3210966
523 1 -12.4816449 -6.24082245 -6.24082245
524 1 -12.4816449 -8.3210966 -4.1605483
525 1 -12.4816449 -6.24082245 -2.08027415
526 1 -10.40137075 -8.3210966 -2.08027415
527 1 -10.40137075 -6.24082245 -4.1605483
528 1 -12.4816449 -8.3210966 0.0
529 1 -12.4816449 -6.24082245 2.08027415
530 1 -10.40137075 -8.3210966 2.08027415
531 1 -10.40137075 -6.24082245 0.0
532 1 -12.4816449 -8.3210966 4.1605483
533 1 -12.4816449 -6.24082245 6.24082245
534 1 -10.40137075 -6.24082245 4.1605483
535 1 -12.4816449 -4.1605483 -4.1605483
536 1 -12.4816449 -2.08027415 -2.08027415
537 1 -12.4816449 -4.1605483 0.0
538 1 -12.4816449 -2.08027415 2.08027415
539 1 -12.4816449 -4.1605483 4.1605483
540 1 -12.4816449 0.0 -4.1605483
541 1 -12.4816449 2.08027415 -2.08027415
542 1 -12.4816449 0.0 0.0
543 1 -12.4816449 2.08027415 2.08027415
544 1 -12.4816449 0.0 4.1605483
545 1 -12.4816449 6.24082245 -6.24082245
546 1 -12.4816449 4.1605483 -4.1605483
547 1 -12.4816449 6.24082245 -2.08027415
548 1 -10.40137075 6.24082245 -4.1605483
549 1 -12.4816449 4.1605483 0.0
550 1 -12.4816449 6.24082245 2.08027415
551 1 -10.40137075 6.24082245 0.0
552 1 -12.4816449 4.1605483 4.1605483
553 1 -12.4816449 6.24082245 6.24082245
554 1 -10.40137075 6.24082245 4.1605483
555 1 -12.4816449 10.40137075 -6.24082245
556 1 -12.4816449 8.3210966 -4.1605483
557 1 -12.4816449 10.40137075 -2.08027415
558 1 -10.40137075 8.3210966 -2.08027415
559 1 -10.40137075 10.40137075 -4.1605483
560 1 -12.4816449 8.3210966 0.0
561 1 -12.4816449 10.40137075 2.08027415
562 1 -10.40137075 8.3210966 2.08027415
563 1 -10.40137075 10.40137075 0.0
564 1 -12.4816449 8.3210966 4.1605483
565 1 -12.4816449 10.40137075 6.24082245
566 1 -10.40137075 10.40137075 4.1605483
567 1 -12.4816449 12.4816449 -8.3210966
568 1 -12.4816449 14.56191905 -6.24082245
569 1 -10.40137075 12.4816449 -6.24082245
570 1 -10.40137075 14.56191905 -8.3210966
571 1 -12.4816449 12.4816449 -4.1605483
572 1 -12.4816449 14.56191905 -2.08027415
573 1 -10.40137075 12.4816449 -2.08027415
574 1 -10.40137075 14.56191905 -4.1605483
575 1 -12.4816449 12.4816449 0.0
576 1 -12.4816449 14.56191905 2.08027415
577 1 -10.40137075 12.4816449 2.08027415
578 1 -10.40137075 14.56191905 0.0
579 1 -12.4816449 12.4816449 4.1605483
580 1 -12.4816449 14.56191905 6.24082245
581 1 -10.40137075 12.4816449 6.24082245
582 1 -10.40137075 14.56191905 4.1605483
583 1 -12.4816449 12.4816449 8.3210966
584 1 -10.40137075 14.56191905 8.3210966
585 1 -12.4816449 16.6421932 -8.3210966
586 1 -12.4816449 18.72246735 -6.24082245
587 1 -10.40137075 16.6421932 -6.24082245
588 1 -10.40137075 18.72246735 -8.3210966
589 1 -12.4816449 16.6421932 -4.1605483
590 1 -12.4816449 18.72246735 -2.08027415
591 1 -10.40137075 16.6421932 -2.08027415
592 1 -10.40137075 18.72246735 -4.1605483
593 1 -12.4816449 16.6421932 0.0
594 1 -12.4816449 18.72246735 2.08027415
595 1 -10.40137075 16.6421932 2.08027415
596 1 -10.40137075 18.72246735 0.0
597 1 -12.4816449 16.6421932 4.1605483
598 1 -12.4816449 18.72246735 6.24082245
599 1 -10.40137075 16.6421932 6.24082245
600 1 -10.40137075 18.72246735 4.1605483
601 1 -12.4816449 16.6421932 8.3210966
602 1 -10.40137075 18.72246735 8.3210966
603 1 -12.4816449 22.88301565 -6.24082245
604 1 -10.40137075 20.8027415 -6.24082245
605 1 -12.4816449 20.8027415 -4.1605483
606 1 -12.4816449 22.88301565 -2.08027415
607 1 -10.40137075 20.8027415 -2.08027415
608 1 -10.40137075 22.88301565 -4.1605483
609 1 -12.4816449 20.8027415 0.0
610 1 -12.4816449 22.88301565 2.08027415
611 1 -10.40137075 20.8027415 2.08027415
612 1 -10.40137075 22.88301565 0.0
613 1 -12.4816449 20.8027415 4.1605483
614 1 -12.4816449 22.88301565 6.24082245
615 1 -10.40137075 20.8027415 6.24082245
616 1 -10.40137075 22.88301565 4.1605483
617 1 -12.4816449 24.9632898 -4.1605483
618 1 -10.40137075 24.9632898 -2.08027415
619 1 -12.4816449 24.9632898 0.0
620 1 -10.40137075 24.9632898 2.08027415
621 1 -10.40137075 27.04356395 0.0
622 1 -12.4816449 24.9632898 4.1605483
623 1 -8.3210966 -27.04356395 -2.08027415
624 1 -6.24082245 -27.04356395 -4.1605483
625 1 -8.3210966 -27.04356395 2.08027415
626 1 -6.24082245 -27.04356395 0.0
627 1 -6.24082245 -27.04356395 4.1605483
628 1 -8.3210966 -22.88301565 -6.24082245
629 1 -6.24082245 -24.9632898 -6.24082245
630 1 -8.3210966 -24.9632898 -4.1605483
631 1 -8.3210966 -22.88301565 -2.08027415
632 1 -6.24082245 -24.9632898 -2.08027415
633 1 -6.24082245 -22.88301565 -4.1605483
634 1 -8.3210966 -24.9632898 0.0
635 1 -8.3210966 -22.88301565 2.08027415
636 1 -6.24082245 -24.9632898 2.08027415
637 1 -6.24082245 -22.88301565 0.0
638 1 -8.3210966 -24.9632898 4.1605483
639 1 -8.3210966 -22.88301565 6.24082245
640 1 -6.24082245 -24.9632898 6.24082245
641 1 -6.24082245 -22.88301565 4.1605483
642 1 -8.3210966 -20.8027415 -8.3210966
643 1 -8.3210966 -18.72246735 -6.24082245
644 1 -6.24082245 -20.8027415 -6.24082245
645 1 -6.24082245 -18.72246735 -8.3210966
646 1 -8.3210966 -20.8027415 -4.1605483
647 1 -8.3210966 -18.72246735 -2.08027415
648 1 -6.24082245 -20.8027415 -2.08027415
649 1 -6.24082245 -18.72246735 -4.1605483
650 1 -8.3210966 -20.8027415 0.0
651 1 -8.3210966 -18.72246735 2.08027415
652 1 -6.24082245 -20.8027415 2.08027415
653 1 -6.24082245 -18.72246735 0.0
654 1 -8.3210966 -20.8027415 4.1605483
655 1 -8.3210966 -18.72246735 6.24082245
656 1 -6.24082245 -20.8027415 6.24082245
657 1 -6.24082245 -18.72246735 4.1605483
658 1 -8.3210966 -20.8027415 8.3210966
659 1 -6.24082245 -18.72246735 8.3210966
660 1 -8.3210966 -16.6421932 -8.3210966
661 1 -8.3210966 -14.56191905 -6.24082245
662 1 -6.24082245 -16.6421932 -6.24082245
663 1 -8.3210966 -16.6421932 -4.1605483
664 1 -8.3210966 -14.56191905 -2.08027415
665 1 -6.24082245 -16.6421932 -2.08027415
666 1 -6.24082245 -14.56191905 -4.1605483
667 1 -8.3210966 -16.6421932 0.0
668 1 -8.3210966 -14.56191905 2.08027415
669 1 -6.24082245 -16.6421932 2.08027415
670 1 -6.24082245 -14.56191905 0.0
671 1 -8.3210966 -16.6421932 4.1605483
672 1 -8.3210966 -14.56191905 6.24082245
673 1 -6.24082245 -16.6421932 6.24082245
674 1 -6.24082245 -14.56191905 4.1605483
675 1 -8.3210966 -16.6421932 8.3210966
676 1 -6.24082245 -12.4816449 -6.24082245
677 1 -8.3210966 -12.4816449 -4.1605483
678 1 -8.3210966 -10.40137075 -2.08027415
679 1 -6.24082245 -12.4816449 -2.08027415
680 1 -6.24082245 -10.40137075 -4.1605483
681 1 -8.3210966 -12.4816449 0.0
682 1 -8.3210966 -10.40137075 2.08027415
683 1 -6.24082245 -12.4816449 2.08027415
684 1 -6.24082245 -10.40137075 0.0
685 1 -8.3210966 -12.4816449 4.1605483
686 1 -6.24082245 -12.4816449 6.24082245
687 1 -6.24082245 -10.40137075 4.1605483
688 1 -8.3210966 -8.3210966 0.0
689 1 -8.3210966 10.40137075 -2.08027415
690 1 -6.24082245 10.40137075 -4.1605483
691 1 -8.3210966 8.3210966 0.0
692 1 -8.3210966 10.40137075 2.08027415
693 1 -6.24082245 10.40137075 0.0
694 1 -6.24082245 10.40137075 4.1605483
695 1 -8.3210966 14.56191905 -6.24082245
696 1 -6.24082245 12.4816449 -6.24082245
697 1 -8.3210966 12.4816449 -4.1605483
698 1 -8.3210966 14.56191905 -2.08027415
699 1 -6.24082245 12.4816449 -2.08027415
700 1 -6.24082245 14.56191905 -4.1605483
701 1 -8.3210966 12.4816449 0.0
702 1 -8.3210966 14.56191905 2.08027415
703 1 -6.24082245 12.4816449 2.08027415
704 1 -6.24082245 14.56191905 0.0
705 1 -8.3210966 12.4816449 4.1605483
706 1 -8.3210966 14.56191905 6.24082245
707 1 -6.24082245 12.4816449 6.24082245
708 1 -6.24082245 14.56191905 4.1605483
709 1 -8.3210966 16.6421932 -8.3210966
710 1 -8.3210966 18.72246735 -6.24082245
711 1 -6.24082245 16.6421932 -6.24082245
712 1 -6.24082245 18.72246735 -8.3210966
713 1 -8.3210966 16.6421932 -4.1605483
714 1 -8.3210966 18.72246735 -2.08027415
715 1 -6.24082245 16.6421932 -2.08027415
716 1 -6.24082245 18.72246735 -4.1605483
717 1 -8.3210966 16.6421932 0.0
718 1 -8.3210966 18.72246735 2.08027415
719 1 -6.24082245 16.6421932 2.08027415
720 1 -6.24082245 18.72246735 0.0
721 1 -8.3210966 16.6421932 4.1605483
722 1 -8.3210966 18.72246735 6.24082245
723 1 -6.24082245 16.6421932 6.24082245
724 1 -6.24082245 18.72246735 4.1605483
725 1 -8.3210966 16.6421932 8.3210966
726 1 -6.24082245 18.72246735 8.3210966
727 1 -8.3210966 20.8027415 -8.3210966
728 1 -8.3210966 22.88301565 -6.24082245
729 1 -6.24082245 20.8027415 -6.24082245
730 1 -8.3210966 20.8027415 -4.1605483
731 1 -8.3210966 22.88301565 -2.08027415
732 1 -6.24082245 20.8027415 -2.08027415
733 1 -6.24082245 22.88301565 -4.1605483
734 1 -8.3210966 20.8027415 0.0
735 1 -8.3210966 22.88301565 2.08027415
736 1 -6.24082245 20.8027415 2.08027415
737 1 -6.24082245 22.88301565 0.0
738 1 -8.3210966 20.8027415 4.1605483
739 1 -8.3210966 22.88301565 6.24082245
740 1 -6.24082245 20.8027415 6.24082245
741 1 -6.24082245 22.88301565 4.1605483
742 1 -8.3210966 20.8027415 8.3210966
743 1 -6.24082245 24.9632898 -6.24082245
744 1 -8.3210966 24.9632898 -4.1605483
745 1 -8.3210966 27.04356395 -2.08027415
746 1 -6.24082245 24.9632898 -2.08027415
747 1 -6.24082245 27.04356395 -4.1605483
748 1 -8.3210966 24.9632898 0.0
749 1 -8.3210966 27.04356395 2.08027415
750 1 -6.24082245 24.9632898 2.08027415
751 1 -6.24082245 27.04356395 0.0
752 1 -8.3210966 24.9632898 4.1605483
753 1 -6.24082245 24.9632898 6.24082245